+ 2 0 2 tcp 40 ------- 0 0.0 4.0 0 0
- 2 0 2 tcp 40 ------- 0 0.0 4.0 0 0
r 2.01016 0 2 tcp 40 ------- 0 0.0 4.0 0 0
+ 2.01016 2 3 tcp 40 ------- 0 0.0 4.0 0 0
- 2.01016 2 3 tcp 40 ------- 0 0.0 4.0 0 0
r 2.111227 2 3 tcp 40 ------- 0 0.0 4.0 0 0
+ 2.111227 3 4 tcp 40 ------- 0 0.0 4.0 0 0
- 2.111227 3 4 tcp 40 ------- 0 0.0 4.0 0 0
r 2.151867 3 4 tcp 40 ------- 0 0.0 4.0 0 0
+ 2.151867 4 3 ack 40 ------- 0 4.0 0.0 0 1
- 2.151867 4 3 ack 40 ------- 0 4.0 0.0 0 1
r 2.192507 4 3 ack 40 ------- 0 4.0 0.0 0 1
+ 2.192507 3 2 ack 40 ------- 0 4.0 0.0 0 1
- 2.192507 3 2 ack 40 ------- 0 4.0 0.0 0 1
r 2.293573 3 2 ack 40 ------- 0 4.0 0.0 0 1
+ 2.293573 2 0 ack 40 ------- 0 4.0 0.0 0 1
- 2.293573 2 0 ack 40 ------- 0 4.0 0.0 0 1
r 2.303733 2 0 ack 40 ------- 0 4.0 0.0 0 1
+ 2.303733 0 2 tcp 1040 ------- 0 0.0 4.0 1 2
- 2.303733 0 2 tcp 1040 ------- 0 0.0 4.0 1 2
+ 2.303733 0 2 tcp 1040 ------- 0 0.0 4.0 2 3
- 2.307893 0 2 tcp 1040 ------- 0 0.0 4.0 2 3
r 2.317893 0 2 tcp 1040 ------- 0 0.0 4.0 1 2
+ 2.317893 2 3 tcp 1040 ------- 0 0.0 4.0 1 2
- 2.317893 2 3 tcp 1040 ------- 0 0.0 4.0 1 2
r 2.322053 0 2 tcp 1040 ------- 0 0.0 4.0 2 3
+ 2.322053 2 3 tcp 1040 ------- 0 0.0 4.0 2 3
- 2.345627 2 3 tcp 1040 ------- 0 0.0 4.0 2 3
r 2.445627 2 3 tcp 1040 ------- 0 0.0 4.0 1 2
+ 2.445627 3 4 tcp 1040 ------- 0 0.0 4.0 1 2
- 2.445627 3 4 tcp 1040 ------- 0 0.0 4.0 1 2
r 2.47336 2 3 tcp 1040 ------- 0 0.0 4.0 2 3
+ 2.47336 3 4 tcp 1040 ------- 0 0.0 4.0 2 3
- 2.47336 3 4 tcp 1040 ------- 0 0.0 4.0 2 3
r 2.502267 3 4 tcp 1040 ------- 0 0.0 4.0 1 2
+ 2.502267 4 3 ack 40 ------- 0 4.0 0.0 1 4
- 2.502267 4 3 ack 40 ------- 0 4.0 0.0 1 4
r 2.53 3 4 tcp 1040 ------- 0 0.0 4.0 2 3
+ 2.53 4 3 ack 40 ------- 0 4.0 0.0 2 5
- 2.53 4 3 ack 40 ------- 0 4.0 0.0 2 5
r 2.542907 4 3 ack 40 ------- 0 4.0 0.0 1 4
+ 2.542907 3 2 ack 40 ------- 0 4.0 0.0 1 4
- 2.542907 3 2 ack 40 ------- 0 4.0 0.0 1 4
r 2.57064 4 3 ack 40 ------- 0 4.0 0.0 2 5
+ 2.57064 3 2 ack 40 ------- 0 4.0 0.0 2 5
- 2.57064 3 2 ack 40 ------- 0 4.0 0.0 2 5
r 2.643973 3 2 ack 40 ------- 0 4.0 0.0 1 4
+ 2.643973 2 0 ack 40 ------- 0 4.0 0.0 1 4
- 2.643973 2 0 ack 40 ------- 0 4.0 0.0 1 4
r 2.654133 2 0 ack 40 ------- 0 4.0 0.0 1 4
+ 2.654133 0 2 tcp 1040 ------- 0 0.0 4.0 3 6
- 2.654133 0 2 tcp 1040 ------- 0 0.0 4.0 3 6
+ 2.654133 0 2 tcp 1040 ------- 0 0.0 4.0 4 7
- 2.658293 0 2 tcp 1040 ------- 0 0.0 4.0 4 7
r 2.668293 0 2 tcp 1040 ------- 0 0.0 4.0 3 6
+ 2.668293 2 3 tcp 1040 ------- 0 0.0 4.0 3 6
- 2.668293 2 3 tcp 1040 ------- 0 0.0 4.0 3 6
r 2.671707 3 2 ack 40 ------- 0 4.0 0.0 2 5
+ 2.671707 2 0 ack 40 ------- 0 4.0 0.0 2 5
- 2.671707 2 0 ack 40 ------- 0 4.0 0.0 2 5
r 2.672453 0 2 tcp 1040 ------- 0 0.0 4.0 4 7
+ 2.672453 2 3 tcp 1040 ------- 0 0.0 4.0 4 7
r 2.681867 2 0 ack 40 ------- 0 4.0 0.0 2 5
+ 2.681867 0 2 tcp 1040 ------- 0 0.0 4.0 5 8
- 2.681867 0 2 tcp 1040 ------- 0 0.0 4.0 5 8
+ 2.681867 0 2 tcp 1040 ------- 0 0.0 4.0 6 9
- 2.686027 0 2 tcp 1040 ------- 0 0.0 4.0 6 9
- 2.696027 2 3 tcp 1040 ------- 0 0.0 4.0 4 7
r 2.696027 0 2 tcp 1040 ------- 0 0.0 4.0 5 8
+ 2.696027 2 3 tcp 1040 ------- 0 0.0 4.0 5 8
r 2.700187 0 2 tcp 1040 ------- 0 0.0 4.0 6 9
+ 2.700187 2 3 tcp 1040 ------- 0 0.0 4.0 6 9
- 2.72376 2 3 tcp 1040 ------- 0 0.0 4.0 5 8
- 2.751493 2 3 tcp 1040 ------- 0 0.0 4.0 6 9
r 2.796027 2 3 tcp 1040 ------- 0 0.0 4.0 3 6
+ 2.796027 3 4 tcp 1040 ------- 0 0.0 4.0 3 6
- 2.796027 3 4 tcp 1040 ------- 0 0.0 4.0 3 6
r 2.82376 2 3 tcp 1040 ------- 0 0.0 4.0 4 7
+ 2.82376 3 4 tcp 1040 ------- 0 0.0 4.0 4 7
- 2.82376 3 4 tcp 1040 ------- 0 0.0 4.0 4 7
r 2.851493 2 3 tcp 1040 ------- 0 0.0 4.0 5 8
+ 2.851493 3 4 tcp 1040 ------- 0 0.0 4.0 5 8
- 2.851493 3 4 tcp 1040 ------- 0 0.0 4.0 5 8
r 2.852667 3 4 tcp 1040 ------- 0 0.0 4.0 3 6
+ 2.852667 4 3 ack 40 ------- 0 4.0 0.0 3 10
- 2.852667 4 3 ack 40 ------- 0 4.0 0.0 3 10
r 2.879227 2 3 tcp 1040 ------- 0 0.0 4.0 6 9
+ 2.879227 3 4 tcp 1040 ------- 0 0.0 4.0 6 9
- 2.879227 3 4 tcp 1040 ------- 0 0.0 4.0 6 9
r 2.8804 3 4 tcp 1040 ------- 0 0.0 4.0 4 7
+ 2.8804 4 3 ack 40 ------- 0 4.0 0.0 4 11
- 2.8804 4 3 ack 40 ------- 0 4.0 0.0 4 11
r 2.893307 4 3 ack 40 ------- 0 4.0 0.0 3 10
+ 2.893307 3 2 ack 40 ------- 0 4.0 0.0 3 10
- 2.893307 3 2 ack 40 ------- 0 4.0 0.0 3 10
r 2.908133 3 4 tcp 1040 ------- 0 0.0 4.0 5 8
+ 2.908133 4 3 ack 40 ------- 0 4.0 0.0 5 12
- 2.908133 4 3 ack 40 ------- 0 4.0 0.0 5 12
r 2.92104 4 3 ack 40 ------- 0 4.0 0.0 4 11
+ 2.92104 3 2 ack 40 ------- 0 4.0 0.0 4 11
- 2.92104 3 2 ack 40 ------- 0 4.0 0.0 4 11
r 2.935867 3 4 tcp 1040 ------- 0 0.0 4.0 6 9
+ 2.935867 4 3 ack 40 ------- 0 4.0 0.0 6 13
- 2.935867 4 3 ack 40 ------- 0 4.0 0.0 6 13
r 2.948773 4 3 ack 40 ------- 0 4.0 0.0 5 12
+ 2.948773 3 2 ack 40 ------- 0 4.0 0.0 5 12
- 2.948773 3 2 ack 40 ------- 0 4.0 0.0 5 12
r 2.976507 4 3 ack 40 ------- 0 4.0 0.0 6 13
+ 2.976507 3 2 ack 40 ------- 0 4.0 0.0 6 13
- 2.976507 3 2 ack 40 ------- 0 4.0 0.0 6 13
r 2.994373 3 2 ack 40 ------- 0 4.0 0.0 3 10
+ 2.994373 2 0 ack 40 ------- 0 4.0 0.0 3 10
- 2.994373 2 0 ack 40 ------- 0 4.0 0.0 3 10
+ 3 1 2 cbr 500 ------- 0 1.0 5.0 0 14
- 3 1 2 cbr 500 ------- 0 1.0 5.0 0 14
+ 3.0003 1 2 cbr 500 ------- 0 1.0 5.0 1 15
+ 3.0006 1 2 cbr 500 ------- 0 1.0 5.0 2 16
+ 3.0009 1 2 cbr 500 ------- 0 1.0 5.0 3 17
+ 3.0012 1 2 cbr 500 ------- 0 1.0 5.0 4 18
+ 3.0015 1 2 cbr 500 ------- 0 1.0 5.0 5 19
+ 3.0018 1 2 cbr 500 ------- 0 1.0 5.0 6 20
- 3.002 1 2 cbr 500 ------- 0 1.0 5.0 1 15
+ 3.0021 1 2 cbr 500 ------- 0 1.0 5.0 7 21
+ 3.0024 1 2 cbr 500 ------- 0 1.0 5.0 8 22
+ 3.0027 1 2 cbr 500 ------- 0 1.0 5.0 9 23
+ 3.003 1 2 cbr 500 ------- 0 1.0 5.0 10 24
+ 3.0033 1 2 cbr 500 ------- 0 1.0 5.0 11 25
+ 3.0036 1 2 cbr 500 ------- 0 1.0 5.0 12 26
+ 3.0039 1 2 cbr 500 ------- 0 1.0 5.0 13 27
- 3.004 1 2 cbr 500 ------- 0 1.0 5.0 2 16
+ 3.0042 1 2 cbr 500 ------- 0 1.0 5.0 14 28
+ 3.0045 1 2 cbr 500 ------- 0 1.0 5.0 15 29
r 3.004533 2 0 ack 40 ------- 0 4.0 0.0 3 10
+ 3.004533 0 2 tcp 1040 ------- 0 0.0 4.0 7 30
- 3.004533 0 2 tcp 1040 ------- 0 0.0 4.0 7 30
+ 3.004533 0 2 tcp 1040 ------- 0 0.0 4.0 8 31
+ 3.0048 1 2 cbr 500 ------- 0 1.0 5.0 16 32
+ 3.0051 1 2 cbr 500 ------- 0 1.0 5.0 17 33
+ 3.0054 1 2 cbr 500 ------- 0 1.0 5.0 18 34
+ 3.0057 1 2 cbr 500 ------- 0 1.0 5.0 19 35
- 3.006 1 2 cbr 500 ------- 0 1.0 5.0 3 17
+ 3.006 1 2 cbr 500 ------- 0 1.0 5.0 20 36
+ 3.0063 1 2 cbr 500 ------- 0 1.0 5.0 21 37
+ 3.0066 1 2 cbr 500 ------- 0 1.0 5.0 22 38
+ 3.0069 1 2 cbr 500 ------- 0 1.0 5.0 23 39
+ 3.0072 1 2 cbr 500 ------- 0 1.0 5.0 24 40
+ 3.0075 1 2 cbr 500 ------- 0 1.0 5.0 25 41
+ 3.0078 1 2 cbr 500 ------- 0 1.0 5.0 26 42
- 3.008 1 2 cbr 500 ------- 0 1.0 5.0 4 18
+ 3.0081 1 2 cbr 500 ------- 0 1.0 5.0 27 43
+ 3.0084 1 2 cbr 500 ------- 0 1.0 5.0 28 44
- 3.008693 0 2 tcp 1040 ------- 0 0.0 4.0 8 31
+ 3.0087 1 2 cbr 500 ------- 0 1.0 5.0 29 45
+ 3.009 1 2 cbr 500 ------- 0 1.0 5.0 30 46
+ 3.0093 1 2 cbr 500 ------- 0 1.0 5.0 31 47
+ 3.0096 1 2 cbr 500 ------- 0 1.0 5.0 32 48
+ 3.0099 1 2 cbr 500 ------- 0 1.0 5.0 33 49
- 3.01 1 2 cbr 500 ------- 0 1.0 5.0 5 19
+ 3.0102 1 2 cbr 500 ------- 0 1.0 5.0 34 50
+ 3.0105 1 2 cbr 500 ------- 0 1.0 5.0 35 51
+ 3.0108 1 2 cbr 500 ------- 0 1.0 5.0 36 52
+ 3.0111 1 2 cbr 500 ------- 0 1.0 5.0 37 53
+ 3.0114 1 2 cbr 500 ------- 0 1.0 5.0 38 54
+ 3.0117 1 2 cbr 500 ------- 0 1.0 5.0 39 55
- 3.012 1 2 cbr 500 ------- 0 1.0 5.0 6 20
r 3.012 1 2 cbr 500 ------- 0 1.0 5.0 0 14
+ 3.012 2 3 cbr 500 ------- 0 1.0 5.0 0 14
- 3.012 2 3 cbr 500 ------- 0 1.0 5.0 0 14
+ 3.012 1 2 cbr 500 ------- 0 1.0 5.0 40 56
+ 3.0123 1 2 cbr 500 ------- 0 1.0 5.0 41 57
+ 3.0126 1 2 cbr 500 ------- 0 1.0 5.0 42 58
+ 3.0129 1 2 cbr 500 ------- 0 1.0 5.0 43 59
+ 3.0132 1 2 cbr 500 ------- 0 1.0 5.0 44 60
+ 3.0135 1 2 cbr 500 ------- 0 1.0 5.0 45 61
+ 3.0138 1 2 cbr 500 ------- 0 1.0 5.0 46 62
- 3.014 1 2 cbr 500 ------- 0 1.0 5.0 7 21
r 3.014 1 2 cbr 500 ------- 0 1.0 5.0 1 15
+ 3.014 2 3 cbr 500 ------- 0 1.0 5.0 1 15
+ 3.0141 1 2 cbr 500 ------- 0 1.0 5.0 47 63
+ 3.0144 1 2 cbr 500 ------- 0 1.0 5.0 48 64
+ 3.0147 1 2 cbr 500 ------- 0 1.0 5.0 49 65
+ 3.015 1 2 cbr 500 ------- 0 1.0 5.0 50 66
+ 3.0153 1 2 cbr 500 ------- 0 1.0 5.0 51 67
+ 3.0156 1 2 cbr 500 ------- 0 1.0 5.0 52 68
+ 3.0159 1 2 cbr 500 ------- 0 1.0 5.0 53 69
- 3.016 1 2 cbr 500 ------- 0 1.0 5.0 8 22
r 3.016 1 2 cbr 500 ------- 0 1.0 5.0 2 16
+ 3.016 2 3 cbr 500 ------- 0 1.0 5.0 2 16
+ 3.0162 1 2 cbr 500 ------- 0 1.0 5.0 54 70
+ 3.0165 1 2 cbr 500 ------- 0 1.0 5.0 55 71
+ 3.0168 1 2 cbr 500 ------- 0 1.0 5.0 56 72
+ 3.0171 1 2 cbr 500 ------- 0 1.0 5.0 57 73
+ 3.0174 1 2 cbr 500 ------- 0 1.0 5.0 58 74
d 3.0174 1 2 cbr 500 ------- 0 1.0 5.0 58 74
+ 3.0177 1 2 cbr 500 ------- 0 1.0 5.0 59 75
d 3.0177 1 2 cbr 500 ------- 0 1.0 5.0 59 75
- 3.018 1 2 cbr 500 ------- 0 1.0 5.0 9 23
r 3.018 1 2 cbr 500 ------- 0 1.0 5.0 3 17
+ 3.018 2 3 cbr 500 ------- 0 1.0 5.0 3 17
+ 3.018 1 2 cbr 500 ------- 0 1.0 5.0 60 76
+ 3.0183 1 2 cbr 500 ------- 0 1.0 5.0 61 77
d 3.0183 1 2 cbr 500 ------- 0 1.0 5.0 61 77
+ 3.0186 1 2 cbr 500 ------- 0 1.0 5.0 62 78
d 3.0186 1 2 cbr 500 ------- 0 1.0 5.0 62 78
r 3.018693 0 2 tcp 1040 ------- 0 0.0 4.0 7 30
+ 3.018693 2 3 tcp 1040 ------- 0 0.0 4.0 7 30
+ 3.0189 1 2 cbr 500 ------- 0 1.0 5.0 63 79
d 3.0189 1 2 cbr 500 ------- 0 1.0 5.0 63 79
+ 3.0192 1 2 cbr 500 ------- 0 1.0 5.0 64 80
d 3.0192 1 2 cbr 500 ------- 0 1.0 5.0 64 80
+ 3.0195 1 2 cbr 500 ------- 0 1.0 5.0 65 81
d 3.0195 1 2 cbr 500 ------- 0 1.0 5.0 65 81
+ 3.0198 1 2 cbr 500 ------- 0 1.0 5.0 66 82
d 3.0198 1 2 cbr 500 ------- 0 1.0 5.0 66 82
- 3.02 1 2 cbr 500 ------- 0 1.0 5.0 10 24
r 3.02 1 2 cbr 500 ------- 0 1.0 5.0 4 18
+ 3.02 2 3 cbr 500 ------- 0 1.0 5.0 4 18
+ 3.0201 1 2 cbr 500 ------- 0 1.0 5.0 67 83
+ 3.0204 1 2 cbr 500 ------- 0 1.0 5.0 68 84
d 3.0204 1 2 cbr 500 ------- 0 1.0 5.0 68 84
+ 3.0207 1 2 cbr 500 ------- 0 1.0 5.0 69 85
d 3.0207 1 2 cbr 500 ------- 0 1.0 5.0 69 85
+ 3.021 1 2 cbr 500 ------- 0 1.0 5.0 70 86
d 3.021 1 2 cbr 500 ------- 0 1.0 5.0 70 86
+ 3.0213 1 2 cbr 500 ------- 0 1.0 5.0 71 87
d 3.0213 1 2 cbr 500 ------- 0 1.0 5.0 71 87
+ 3.0216 1 2 cbr 500 ------- 0 1.0 5.0 72 88
d 3.0216 1 2 cbr 500 ------- 0 1.0 5.0 72 88
+ 3.0219 1 2 cbr 500 ------- 0 1.0 5.0 73 89
d 3.0219 1 2 cbr 500 ------- 0 1.0 5.0 73 89
- 3.022 1 2 cbr 500 ------- 0 1.0 5.0 11 25
r 3.022 1 2 cbr 500 ------- 0 1.0 5.0 5 19
+ 3.022 2 3 cbr 500 ------- 0 1.0 5.0 5 19
r 3.022107 3 2 ack 40 ------- 0 4.0 0.0 4 11
+ 3.022107 2 0 ack 40 ------- 0 4.0 0.0 4 11
- 3.022107 2 0 ack 40 ------- 0 4.0 0.0 4 11
+ 3.0222 1 2 cbr 500 ------- 0 1.0 5.0 74 90
+ 3.0225 1 2 cbr 500 ------- 0 1.0 5.0 75 91
d 3.0225 1 2 cbr 500 ------- 0 1.0 5.0 75 91
+ 3.0228 1 2 cbr 500 ------- 0 1.0 5.0 76 92
d 3.0228 1 2 cbr 500 ------- 0 1.0 5.0 76 92
r 3.022853 0 2 tcp 1040 ------- 0 0.0 4.0 8 31
+ 3.022853 2 3 tcp 1040 ------- 0 0.0 4.0 8 31
+ 3.0231 1 2 cbr 500 ------- 0 1.0 5.0 77 93
d 3.0231 1 2 cbr 500 ------- 0 1.0 5.0 77 93
+ 3.0234 1 2 cbr 500 ------- 0 1.0 5.0 78 94
d 3.0234 1 2 cbr 500 ------- 0 1.0 5.0 78 94
+ 3.0237 1 2 cbr 500 ------- 0 1.0 5.0 79 95
d 3.0237 1 2 cbr 500 ------- 0 1.0 5.0 79 95
- 3.024 1 2 cbr 500 ------- 0 1.0 5.0 12 26
r 3.024 1 2 cbr 500 ------- 0 1.0 5.0 6 20
+ 3.024 2 3 cbr 500 ------- 0 1.0 5.0 6 20
+ 3.024 1 2 cbr 500 ------- 0 1.0 5.0 80 96
+ 3.0243 1 2 cbr 500 ------- 0 1.0 5.0 81 97
d 3.0243 1 2 cbr 500 ------- 0 1.0 5.0 81 97
+ 3.0246 1 2 cbr 500 ------- 0 1.0 5.0 82 98
d 3.0246 1 2 cbr 500 ------- 0 1.0 5.0 82 98
+ 3.0249 1 2 cbr 500 ------- 0 1.0 5.0 83 99
d 3.0249 1 2 cbr 500 ------- 0 1.0 5.0 83 99
+ 3.0252 1 2 cbr 500 ------- 0 1.0 5.0 84 100
d 3.0252 1 2 cbr 500 ------- 0 1.0 5.0 84 100
- 3.025333 2 3 cbr 500 ------- 0 1.0 5.0 1 15
+ 3.0255 1 2 cbr 500 ------- 0 1.0 5.0 85 101
d 3.0255 1 2 cbr 500 ------- 0 1.0 5.0 85 101
+ 3.0258 1 2 cbr 500 ------- 0 1.0 5.0 86 102
d 3.0258 1 2 cbr 500 ------- 0 1.0 5.0 86 102
- 3.026 1 2 cbr 500 ------- 0 1.0 5.0 13 27
r 3.026 1 2 cbr 500 ------- 0 1.0 5.0 7 21
+ 3.026 2 3 cbr 500 ------- 0 1.0 5.0 7 21
+ 3.0261 1 2 cbr 500 ------- 0 1.0 5.0 87 103
+ 3.0264 1 2 cbr 500 ------- 0 1.0 5.0 88 104
d 3.0264 1 2 cbr 500 ------- 0 1.0 5.0 88 104
+ 3.0267 1 2 cbr 500 ------- 0 1.0 5.0 89 105
d 3.0267 1 2 cbr 500 ------- 0 1.0 5.0 89 105
+ 3.027 1 2 cbr 500 ------- 0 1.0 5.0 90 106
d 3.027 1 2 cbr 500 ------- 0 1.0 5.0 90 106
+ 3.0273 1 2 cbr 500 ------- 0 1.0 5.0 91 107
d 3.0273 1 2 cbr 500 ------- 0 1.0 5.0 91 107
+ 3.0276 1 2 cbr 500 ------- 0 1.0 5.0 92 108
d 3.0276 1 2 cbr 500 ------- 0 1.0 5.0 92 108
+ 3.0279 1 2 cbr 500 ------- 0 1.0 5.0 93 109
d 3.0279 1 2 cbr 500 ------- 0 1.0 5.0 93 109
- 3.028 1 2 cbr 500 ------- 0 1.0 5.0 14 28
r 3.028 1 2 cbr 500 ------- 0 1.0 5.0 8 22
+ 3.028 2 3 cbr 500 ------- 0 1.0 5.0 8 22
+ 3.0282 1 2 cbr 500 ------- 0 1.0 5.0 94 110
+ 3.0285 1 2 cbr 500 ------- 0 1.0 5.0 95 111
d 3.0285 1 2 cbr 500 ------- 0 1.0 5.0 95 111
+ 3.0288 1 2 cbr 500 ------- 0 1.0 5.0 96 112
d 3.0288 1 2 cbr 500 ------- 0 1.0 5.0 96 112
+ 3.0291 1 2 cbr 500 ------- 0 1.0 5.0 97 113
d 3.0291 1 2 cbr 500 ------- 0 1.0 5.0 97 113
+ 3.0294 1 2 cbr 500 ------- 0 1.0 5.0 98 114
d 3.0294 1 2 cbr 500 ------- 0 1.0 5.0 98 114
+ 3.0297 1 2 cbr 500 ------- 0 1.0 5.0 99 115
d 3.0297 1 2 cbr 500 ------- 0 1.0 5.0 99 115
- 3.03 1 2 cbr 500 ------- 0 1.0 5.0 15 29
r 3.03 1 2 cbr 500 ------- 0 1.0 5.0 9 23
+ 3.03 2 3 cbr 500 ------- 0 1.0 5.0 9 23
+ 3.03 1 2 cbr 500 ------- 0 1.0 5.0 100 116
+ 3.0303 1 2 cbr 500 ------- 0 1.0 5.0 101 117
d 3.0303 1 2 cbr 500 ------- 0 1.0 5.0 101 117
+ 3.0306 1 2 cbr 500 ------- 0 1.0 5.0 102 118
d 3.0306 1 2 cbr 500 ------- 0 1.0 5.0 102 118
+ 3.0309 1 2 cbr 500 ------- 0 1.0 5.0 103 119
d 3.0309 1 2 cbr 500 ------- 0 1.0 5.0 103 119
+ 3.0312 1 2 cbr 500 ------- 0 1.0 5.0 104 120
d 3.0312 1 2 cbr 500 ------- 0 1.0 5.0 104 120
+ 3.0315 1 2 cbr 500 ------- 0 1.0 5.0 105 121
d 3.0315 1 2 cbr 500 ------- 0 1.0 5.0 105 121
+ 3.0318 1 2 cbr 500 ------- 0 1.0 5.0 106 122
d 3.0318 1 2 cbr 500 ------- 0 1.0 5.0 106 122
- 3.032 1 2 cbr 500 ------- 0 1.0 5.0 16 32
r 3.032 1 2 cbr 500 ------- 0 1.0 5.0 10 24
+ 3.032 2 3 cbr 500 ------- 0 1.0 5.0 10 24
+ 3.0321 1 2 cbr 500 ------- 0 1.0 5.0 107 123
r 3.032267 2 0 ack 40 ------- 0 4.0 0.0 4 11
+ 3.032267 0 2 tcp 1040 ------- 0 0.0 4.0 9 124
- 3.032267 0 2 tcp 1040 ------- 0 0.0 4.0 9 124
+ 3.032267 0 2 tcp 1040 ------- 0 0.0 4.0 10 125
+ 3.0324 1 2 cbr 500 ------- 0 1.0 5.0 108 126
d 3.0324 1 2 cbr 500 ------- 0 1.0 5.0 108 126
+ 3.0327 1 2 cbr 500 ------- 0 1.0 5.0 109 127
d 3.0327 1 2 cbr 500 ------- 0 1.0 5.0 109 127
+ 3.033 1 2 cbr 500 ------- 0 1.0 5.0 110 128
d 3.033 1 2 cbr 500 ------- 0 1.0 5.0 110 128
+ 3.0333 1 2 cbr 500 ------- 0 1.0 5.0 111 129
d 3.0333 1 2 cbr 500 ------- 0 1.0 5.0 111 129
+ 3.0336 1 2 cbr 500 ------- 0 1.0 5.0 112 130
d 3.0336 1 2 cbr 500 ------- 0 1.0 5.0 112 130
+ 3.0339 1 2 cbr 500 ------- 0 1.0 5.0 113 131
d 3.0339 1 2 cbr 500 ------- 0 1.0 5.0 113 131
- 3.034 1 2 cbr 500 ------- 0 1.0 5.0 17 33
r 3.034 1 2 cbr 500 ------- 0 1.0 5.0 11 25
+ 3.034 2 3 cbr 500 ------- 0 1.0 5.0 11 25
+ 3.0342 1 2 cbr 500 ------- 0 1.0 5.0 114 132
+ 3.0345 1 2 cbr 500 ------- 0 1.0 5.0 115 133
d 3.0345 1 2 cbr 500 ------- 0 1.0 5.0 115 133
+ 3.0348 1 2 cbr 500 ------- 0 1.0 5.0 116 134
d 3.0348 1 2 cbr 500 ------- 0 1.0 5.0 116 134
+ 3.0351 1 2 cbr 500 ------- 0 1.0 5.0 117 135
d 3.0351 1 2 cbr 500 ------- 0 1.0 5.0 117 135
+ 3.0354 1 2 cbr 500 ------- 0 1.0 5.0 118 136
d 3.0354 1 2 cbr 500 ------- 0 1.0 5.0 118 136
+ 3.0357 1 2 cbr 500 ------- 0 1.0 5.0 119 137
d 3.0357 1 2 cbr 500 ------- 0 1.0 5.0 119 137
- 3.036 1 2 cbr 500 ------- 0 1.0 5.0 18 34
r 3.036 1 2 cbr 500 ------- 0 1.0 5.0 12 26
+ 3.036 2 3 cbr 500 ------- 0 1.0 5.0 12 26
+ 3.036 1 2 cbr 500 ------- 0 1.0 5.0 120 138
+ 3.0363 1 2 cbr 500 ------- 0 1.0 5.0 121 139
d 3.0363 1 2 cbr 500 ------- 0 1.0 5.0 121 139
- 3.036427 0 2 tcp 1040 ------- 0 0.0 4.0 10 125
+ 3.0366 1 2 cbr 500 ------- 0 1.0 5.0 122 140
d 3.0366 1 2 cbr 500 ------- 0 1.0 5.0 122 140
+ 3.0369 1 2 cbr 500 ------- 0 1.0 5.0 123 141
d 3.0369 1 2 cbr 500 ------- 0 1.0 5.0 123 141
+ 3.0372 1 2 cbr 500 ------- 0 1.0 5.0 124 142
d 3.0372 1 2 cbr 500 ------- 0 1.0 5.0 124 142
+ 3.0375 1 2 cbr 500 ------- 0 1.0 5.0 125 143
d 3.0375 1 2 cbr 500 ------- 0 1.0 5.0 125 143
+ 3.0378 1 2 cbr 500 ------- 0 1.0 5.0 126 144
d 3.0378 1 2 cbr 500 ------- 0 1.0 5.0 126 144
- 3.038 1 2 cbr 500 ------- 0 1.0 5.0 19 35
r 3.038 1 2 cbr 500 ------- 0 1.0 5.0 13 27
+ 3.038 2 3 cbr 500 ------- 0 1.0 5.0 13 27
+ 3.0381 1 2 cbr 500 ------- 0 1.0 5.0 127 145
+ 3.0384 1 2 cbr 500 ------- 0 1.0 5.0 128 146
d 3.0384 1 2 cbr 500 ------- 0 1.0 5.0 128 146
- 3.038667 2 3 cbr 500 ------- 0 1.0 5.0 2 16
+ 3.0387 1 2 cbr 500 ------- 0 1.0 5.0 129 147
d 3.0387 1 2 cbr 500 ------- 0 1.0 5.0 129 147
+ 3.039 1 2 cbr 500 ------- 0 1.0 5.0 130 148
d 3.039 1 2 cbr 500 ------- 0 1.0 5.0 130 148
+ 3.0393 1 2 cbr 500 ------- 0 1.0 5.0 131 149
d 3.0393 1 2 cbr 500 ------- 0 1.0 5.0 131 149
+ 3.0396 1 2 cbr 500 ------- 0 1.0 5.0 132 150
d 3.0396 1 2 cbr 500 ------- 0 1.0 5.0 132 150
+ 3.0399 1 2 cbr 500 ------- 0 1.0 5.0 133 151
d 3.0399 1 2 cbr 500 ------- 0 1.0 5.0 133 151
- 3.04 1 2 cbr 500 ------- 0 1.0 5.0 20 36
r 3.04 1 2 cbr 500 ------- 0 1.0 5.0 14 28
+ 3.04 2 3 cbr 500 ------- 0 1.0 5.0 14 28
+ 3.0402 1 2 cbr 500 ------- 0 1.0 5.0 134 152
+ 3.0405 1 2 cbr 500 ------- 0 1.0 5.0 135 153
d 3.0405 1 2 cbr 500 ------- 0 1.0 5.0 135 153
+ 3.0408 1 2 cbr 500 ------- 0 1.0 5.0 136 154
d 3.0408 1 2 cbr 500 ------- 0 1.0 5.0 136 154
+ 3.0411 1 2 cbr 500 ------- 0 1.0 5.0 137 155
d 3.0411 1 2 cbr 500 ------- 0 1.0 5.0 137 155
+ 3.0414 1 2 cbr 500 ------- 0 1.0 5.0 138 156
d 3.0414 1 2 cbr 500 ------- 0 1.0 5.0 138 156
+ 3.0417 1 2 cbr 500 ------- 0 1.0 5.0 139 157
d 3.0417 1 2 cbr 500 ------- 0 1.0 5.0 139 157
- 3.042 1 2 cbr 500 ------- 0 1.0 5.0 21 37
r 3.042 1 2 cbr 500 ------- 0 1.0 5.0 15 29
+ 3.042 2 3 cbr 500 ------- 0 1.0 5.0 15 29
+ 3.042 1 2 cbr 500 ------- 0 1.0 5.0 140 158
+ 3.0423 1 2 cbr 500 ------- 0 1.0 5.0 141 159
d 3.0423 1 2 cbr 500 ------- 0 1.0 5.0 141 159
+ 3.0426 1 2 cbr 500 ------- 0 1.0 5.0 142 160
d 3.0426 1 2 cbr 500 ------- 0 1.0 5.0 142 160
+ 3.0429 1 2 cbr 500 ------- 0 1.0 5.0 143 161
d 3.0429 1 2 cbr 500 ------- 0 1.0 5.0 143 161
+ 3.0432 1 2 cbr 500 ------- 0 1.0 5.0 144 162
d 3.0432 1 2 cbr 500 ------- 0 1.0 5.0 144 162
+ 3.0435 1 2 cbr 500 ------- 0 1.0 5.0 145 163
d 3.0435 1 2 cbr 500 ------- 0 1.0 5.0 145 163
+ 3.0438 1 2 cbr 500 ------- 0 1.0 5.0 146 164
d 3.0438 1 2 cbr 500 ------- 0 1.0 5.0 146 164
- 3.044 1 2 cbr 500 ------- 0 1.0 5.0 22 38
r 3.044 1 2 cbr 500 ------- 0 1.0 5.0 16 32
+ 3.044 2 3 cbr 500 ------- 0 1.0 5.0 16 32
+ 3.0441 1 2 cbr 500 ------- 0 1.0 5.0 147 165
+ 3.0444 1 2 cbr 500 ------- 0 1.0 5.0 148 166
d 3.0444 1 2 cbr 500 ------- 0 1.0 5.0 148 166
+ 3.0447 1 2 cbr 500 ------- 0 1.0 5.0 149 167
d 3.0447 1 2 cbr 500 ------- 0 1.0 5.0 149 167
+ 3.045 1 2 cbr 500 ------- 0 1.0 5.0 150 168
d 3.045 1 2 cbr 500 ------- 0 1.0 5.0 150 168
+ 3.0453 1 2 cbr 500 ------- 0 1.0 5.0 151 169
d 3.0453 1 2 cbr 500 ------- 0 1.0 5.0 151 169
+ 3.0456 1 2 cbr 500 ------- 0 1.0 5.0 152 170
d 3.0456 1 2 cbr 500 ------- 0 1.0 5.0 152 170
+ 3.0459 1 2 cbr 500 ------- 0 1.0 5.0 153 171
d 3.0459 1 2 cbr 500 ------- 0 1.0 5.0 153 171
- 3.046 1 2 cbr 500 ------- 0 1.0 5.0 23 39
r 3.046 1 2 cbr 500 ------- 0 1.0 5.0 17 33
+ 3.046 2 3 cbr 500 ------- 0 1.0 5.0 17 33
+ 3.0462 1 2 cbr 500 ------- 0 1.0 5.0 154 172
r 3.046427 0 2 tcp 1040 ------- 0 0.0 4.0 9 124
+ 3.046427 2 3 tcp 1040 ------- 0 0.0 4.0 9 124
+ 3.0465 1 2 cbr 500 ------- 0 1.0 5.0 155 173
d 3.0465 1 2 cbr 500 ------- 0 1.0 5.0 155 173
+ 3.0468 1 2 cbr 500 ------- 0 1.0 5.0 156 174
d 3.0468 1 2 cbr 500 ------- 0 1.0 5.0 156 174
+ 3.0471 1 2 cbr 500 ------- 0 1.0 5.0 157 175
d 3.0471 1 2 cbr 500 ------- 0 1.0 5.0 157 175
+ 3.0474 1 2 cbr 500 ------- 0 1.0 5.0 158 176
d 3.0474 1 2 cbr 500 ------- 0 1.0 5.0 158 176
+ 3.0477 1 2 cbr 500 ------- 0 1.0 5.0 159 177
d 3.0477 1 2 cbr 500 ------- 0 1.0 5.0 159 177
- 3.048 1 2 cbr 500 ------- 0 1.0 5.0 24 40
r 3.048 1 2 cbr 500 ------- 0 1.0 5.0 18 34
+ 3.048 2 3 cbr 500 ------- 0 1.0 5.0 18 34
+ 3.048 1 2 cbr 500 ------- 0 1.0 5.0 160 178
+ 3.0483 1 2 cbr 500 ------- 0 1.0 5.0 161 179
d 3.0483 1 2 cbr 500 ------- 0 1.0 5.0 161 179
+ 3.0486 1 2 cbr 500 ------- 0 1.0 5.0 162 180
d 3.0486 1 2 cbr 500 ------- 0 1.0 5.0 162 180
+ 3.0489 1 2 cbr 500 ------- 0 1.0 5.0 163 181
d 3.0489 1 2 cbr 500 ------- 0 1.0 5.0 163 181
+ 3.0492 1 2 cbr 500 ------- 0 1.0 5.0 164 182
d 3.0492 1 2 cbr 500 ------- 0 1.0 5.0 164 182
+ 3.0495 1 2 cbr 500 ------- 0 1.0 5.0 165 183
d 3.0495 1 2 cbr 500 ------- 0 1.0 5.0 165 183
+ 3.0498 1 2 cbr 500 ------- 0 1.0 5.0 166 184
d 3.0498 1 2 cbr 500 ------- 0 1.0 5.0 166 184
r 3.04984 3 2 ack 40 ------- 0 4.0 0.0 5 12
+ 3.04984 2 0 ack 40 ------- 0 4.0 0.0 5 12
- 3.04984 2 0 ack 40 ------- 0 4.0 0.0 5 12
- 3.05 1 2 cbr 500 ------- 0 1.0 5.0 25 41
r 3.05 1 2 cbr 500 ------- 0 1.0 5.0 19 35
+ 3.05 2 3 cbr 500 ------- 0 1.0 5.0 19 35
+ 3.0501 1 2 cbr 500 ------- 0 1.0 5.0 167 185
+ 3.0504 1 2 cbr 500 ------- 0 1.0 5.0 168 186
d 3.0504 1 2 cbr 500 ------- 0 1.0 5.0 168 186
r 3.050587 0 2 tcp 1040 ------- 0 0.0 4.0 10 125
+ 3.050587 2 3 tcp 1040 ------- 0 0.0 4.0 10 125
+ 3.0507 1 2 cbr 500 ------- 0 1.0 5.0 169 187
d 3.0507 1 2 cbr 500 ------- 0 1.0 5.0 169 187
+ 3.051 1 2 cbr 500 ------- 0 1.0 5.0 170 188
d 3.051 1 2 cbr 500 ------- 0 1.0 5.0 170 188
+ 3.0513 1 2 cbr 500 ------- 0 1.0 5.0 171 189
d 3.0513 1 2 cbr 500 ------- 0 1.0 5.0 171 189
+ 3.0516 1 2 cbr 500 ------- 0 1.0 5.0 172 190
d 3.0516 1 2 cbr 500 ------- 0 1.0 5.0 172 190
+ 3.0519 1 2 cbr 500 ------- 0 1.0 5.0 173 191
d 3.0519 1 2 cbr 500 ------- 0 1.0 5.0 173 191
- 3.052 1 2 cbr 500 ------- 0 1.0 5.0 26 42
r 3.052 1 2 cbr 500 ------- 0 1.0 5.0 20 36
+ 3.052 2 3 cbr 500 ------- 0 1.0 5.0 20 36
- 3.052 2 3 cbr 500 ------- 0 1.0 5.0 3 17
+ 3.0522 1 2 cbr 500 ------- 0 1.0 5.0 174 192
+ 3.0525 1 2 cbr 500 ------- 0 1.0 5.0 175 193
d 3.0525 1 2 cbr 500 ------- 0 1.0 5.0 175 193
+ 3.0528 1 2 cbr 500 ------- 0 1.0 5.0 176 194
d 3.0528 1 2 cbr 500 ------- 0 1.0 5.0 176 194
+ 3.0531 1 2 cbr 500 ------- 0 1.0 5.0 177 195
d 3.0531 1 2 cbr 500 ------- 0 1.0 5.0 177 195
+ 3.0534 1 2 cbr 500 ------- 0 1.0 5.0 178 196
d 3.0534 1 2 cbr 500 ------- 0 1.0 5.0 178 196
+ 3.0537 1 2 cbr 500 ------- 0 1.0 5.0 179 197
d 3.0537 1 2 cbr 500 ------- 0 1.0 5.0 179 197
- 3.054 1 2 cbr 500 ------- 0 1.0 5.0 27 43
r 3.054 1 2 cbr 500 ------- 0 1.0 5.0 21 37
+ 3.054 2 3 cbr 500 ------- 0 1.0 5.0 21 37
+ 3.054 1 2 cbr 500 ------- 0 1.0 5.0 180 198
+ 3.0543 1 2 cbr 500 ------- 0 1.0 5.0 181 199
d 3.0543 1 2 cbr 500 ------- 0 1.0 5.0 181 199
+ 3.0546 1 2 cbr 500 ------- 0 1.0 5.0 182 200
d 3.0546 1 2 cbr 500 ------- 0 1.0 5.0 182 200
+ 3.0549 1 2 cbr 500 ------- 0 1.0 5.0 183 201
d 3.0549 1 2 cbr 500 ------- 0 1.0 5.0 183 201
+ 3.0552 1 2 cbr 500 ------- 0 1.0 5.0 184 202
d 3.0552 1 2 cbr 500 ------- 0 1.0 5.0 184 202
+ 3.0555 1 2 cbr 500 ------- 0 1.0 5.0 185 203
d 3.0555 1 2 cbr 500 ------- 0 1.0 5.0 185 203
+ 3.0558 1 2 cbr 500 ------- 0 1.0 5.0 186 204
d 3.0558 1 2 cbr 500 ------- 0 1.0 5.0 186 204
- 3.056 1 2 cbr 500 ------- 0 1.0 5.0 28 44
r 3.056 1 2 cbr 500 ------- 0 1.0 5.0 22 38
+ 3.056 2 3 cbr 500 ------- 0 1.0 5.0 22 38
+ 3.0561 1 2 cbr 500 ------- 0 1.0 5.0 187 205
+ 3.0564 1 2 cbr 500 ------- 0 1.0 5.0 188 206
d 3.0564 1 2 cbr 500 ------- 0 1.0 5.0 188 206
+ 3.0567 1 2 cbr 500 ------- 0 1.0 5.0 189 207
d 3.0567 1 2 cbr 500 ------- 0 1.0 5.0 189 207
+ 3.057 1 2 cbr 500 ------- 0 1.0 5.0 190 208
d 3.057 1 2 cbr 500 ------- 0 1.0 5.0 190 208
+ 3.0573 1 2 cbr 500 ------- 0 1.0 5.0 191 209
d 3.0573 1 2 cbr 500 ------- 0 1.0 5.0 191 209
+ 3.0576 1 2 cbr 500 ------- 0 1.0 5.0 192 210
d 3.0576 1 2 cbr 500 ------- 0 1.0 5.0 192 210
+ 3.0579 1 2 cbr 500 ------- 0 1.0 5.0 193 211
d 3.0579 1 2 cbr 500 ------- 0 1.0 5.0 193 211
- 3.058 1 2 cbr 500 ------- 0 1.0 5.0 29 45
r 3.058 1 2 cbr 500 ------- 0 1.0 5.0 23 39
+ 3.058 2 3 cbr 500 ------- 0 1.0 5.0 23 39
+ 3.0582 1 2 cbr 500 ------- 0 1.0 5.0 194 212
+ 3.0585 1 2 cbr 500 ------- 0 1.0 5.0 195 213
d 3.0585 1 2 cbr 500 ------- 0 1.0 5.0 195 213
+ 3.0588 1 2 cbr 500 ------- 0 1.0 5.0 196 214
d 3.0588 1 2 cbr 500 ------- 0 1.0 5.0 196 214
+ 3.0591 1 2 cbr 500 ------- 0 1.0 5.0 197 215
d 3.0591 1 2 cbr 500 ------- 0 1.0 5.0 197 215
+ 3.0594 1 2 cbr 500 ------- 0 1.0 5.0 198 216
d 3.0594 1 2 cbr 500 ------- 0 1.0 5.0 198 216
+ 3.0597 1 2 cbr 500 ------- 0 1.0 5.0 199 217
d 3.0597 1 2 cbr 500 ------- 0 1.0 5.0 199 217
- 3.06 1 2 cbr 500 ------- 0 1.0 5.0 30 46
r 3.06 1 2 cbr 500 ------- 0 1.0 5.0 24 40
+ 3.06 2 3 cbr 500 ------- 0 1.0 5.0 24 40
r 3.06 2 0 ack 40 ------- 0 4.0 0.0 5 12
+ 3.06 0 2 tcp 1040 ------- 0 0.0 4.0 11 218
- 3.06 0 2 tcp 1040 ------- 0 0.0 4.0 11 218
+ 3.06 0 2 tcp 1040 ------- 0 0.0 4.0 12 219
+ 3.06 1 2 cbr 500 ------- 0 1.0 5.0 200 220
+ 3.0603 1 2 cbr 500 ------- 0 1.0 5.0 201 221
d 3.0603 1 2 cbr 500 ------- 0 1.0 5.0 201 221
+ 3.0606 1 2 cbr 500 ------- 0 1.0 5.0 202 222
d 3.0606 1 2 cbr 500 ------- 0 1.0 5.0 202 222
+ 3.0609 1 2 cbr 500 ------- 0 1.0 5.0 203 223
d 3.0609 1 2 cbr 500 ------- 0 1.0 5.0 203 223
+ 3.0612 1 2 cbr 500 ------- 0 1.0 5.0 204 224
d 3.0612 1 2 cbr 500 ------- 0 1.0 5.0 204 224
+ 3.0615 1 2 cbr 500 ------- 0 1.0 5.0 205 225
d 3.0615 1 2 cbr 500 ------- 0 1.0 5.0 205 225
+ 3.0618 1 2 cbr 500 ------- 0 1.0 5.0 206 226
d 3.0618 1 2 cbr 500 ------- 0 1.0 5.0 206 226
- 3.062 1 2 cbr 500 ------- 0 1.0 5.0 31 47
r 3.062 1 2 cbr 500 ------- 0 1.0 5.0 25 41
+ 3.062 2 3 cbr 500 ------- 0 1.0 5.0 25 41
+ 3.0621 1 2 cbr 500 ------- 0 1.0 5.0 207 227
+ 3.0624 1 2 cbr 500 ------- 0 1.0 5.0 208 228
d 3.0624 1 2 cbr 500 ------- 0 1.0 5.0 208 228
+ 3.0627 1 2 cbr 500 ------- 0 1.0 5.0 209 229
d 3.0627 1 2 cbr 500 ------- 0 1.0 5.0 209 229
+ 3.063 1 2 cbr 500 ------- 0 1.0 5.0 210 230
d 3.063 1 2 cbr 500 ------- 0 1.0 5.0 210 230
+ 3.0633 1 2 cbr 500 ------- 0 1.0 5.0 211 231
d 3.0633 1 2 cbr 500 ------- 0 1.0 5.0 211 231
+ 3.0636 1 2 cbr 500 ------- 0 1.0 5.0 212 232
d 3.0636 1 2 cbr 500 ------- 0 1.0 5.0 212 232
+ 3.0639 1 2 cbr 500 ------- 0 1.0 5.0 213 233
d 3.0639 1 2 cbr 500 ------- 0 1.0 5.0 213 233
- 3.064 1 2 cbr 500 ------- 0 1.0 5.0 32 48
r 3.064 1 2 cbr 500 ------- 0 1.0 5.0 26 42
+ 3.064 2 3 cbr 500 ------- 0 1.0 5.0 26 42
- 3.06416 0 2 tcp 1040 ------- 0 0.0 4.0 12 219
+ 3.0642 1 2 cbr 500 ------- 0 1.0 5.0 214 234
+ 3.0645 1 2 cbr 500 ------- 0 1.0 5.0 215 235
d 3.0645 1 2 cbr 500 ------- 0 1.0 5.0 215 235
+ 3.0648 1 2 cbr 500 ------- 0 1.0 5.0 216 236
d 3.0648 1 2 cbr 500 ------- 0 1.0 5.0 216 236
+ 3.0651 1 2 cbr 500 ------- 0 1.0 5.0 217 237
d 3.0651 1 2 cbr 500 ------- 0 1.0 5.0 217 237
- 3.065333 2 3 tcp 1040 ------- 0 0.0 4.0 7 30
+ 3.0654 1 2 cbr 500 ------- 0 1.0 5.0 218 238
d 3.0654 1 2 cbr 500 ------- 0 1.0 5.0 218 238
+ 3.0657 1 2 cbr 500 ------- 0 1.0 5.0 219 239
d 3.0657 1 2 cbr 500 ------- 0 1.0 5.0 219 239
- 3.066 1 2 cbr 500 ------- 0 1.0 5.0 33 49
r 3.066 1 2 cbr 500 ------- 0 1.0 5.0 27 43
+ 3.066 2 3 cbr 500 ------- 0 1.0 5.0 27 43
+ 3.066 1 2 cbr 500 ------- 0 1.0 5.0 220 240
+ 3.0663 1 2 cbr 500 ------- 0 1.0 5.0 221 241
d 3.0663 1 2 cbr 500 ------- 0 1.0 5.0 221 241
+ 3.0666 1 2 cbr 500 ------- 0 1.0 5.0 222 242
d 3.0666 1 2 cbr 500 ------- 0 1.0 5.0 222 242
+ 3.0669 1 2 cbr 500 ------- 0 1.0 5.0 223 243
d 3.0669 1 2 cbr 500 ------- 0 1.0 5.0 223 243
+ 3.0672 1 2 cbr 500 ------- 0 1.0 5.0 224 244
d 3.0672 1 2 cbr 500 ------- 0 1.0 5.0 224 244
+ 3.0675 1 2 cbr 500 ------- 0 1.0 5.0 225 245
d 3.0675 1 2 cbr 500 ------- 0 1.0 5.0 225 245
+ 3.0678 1 2 cbr 500 ------- 0 1.0 5.0 226 246
d 3.0678 1 2 cbr 500 ------- 0 1.0 5.0 226 246
- 3.068 1 2 cbr 500 ------- 0 1.0 5.0 34 50
r 3.068 1 2 cbr 500 ------- 0 1.0 5.0 28 44
+ 3.068 2 3 cbr 500 ------- 0 1.0 5.0 28 44
+ 3.0681 1 2 cbr 500 ------- 0 1.0 5.0 227 247
+ 3.0684 1 2 cbr 500 ------- 0 1.0 5.0 228 248
d 3.0684 1 2 cbr 500 ------- 0 1.0 5.0 228 248
+ 3.0687 1 2 cbr 500 ------- 0 1.0 5.0 229 249
d 3.0687 1 2 cbr 500 ------- 0 1.0 5.0 229 249
+ 3.069 1 2 cbr 500 ------- 0 1.0 5.0 230 250
d 3.069 1 2 cbr 500 ------- 0 1.0 5.0 230 250
+ 3.0693 1 2 cbr 500 ------- 0 1.0 5.0 231 251
d 3.0693 1 2 cbr 500 ------- 0 1.0 5.0 231 251
+ 3.0696 1 2 cbr 500 ------- 0 1.0 5.0 232 252
d 3.0696 1 2 cbr 500 ------- 0 1.0 5.0 232 252
+ 3.0699 1 2 cbr 500 ------- 0 1.0 5.0 233 253
d 3.0699 1 2 cbr 500 ------- 0 1.0 5.0 233 253
- 3.07 1 2 cbr 500 ------- 0 1.0 5.0 35 51
r 3.07 1 2 cbr 500 ------- 0 1.0 5.0 29 45
+ 3.07 2 3 cbr 500 ------- 0 1.0 5.0 29 45
+ 3.0702 1 2 cbr 500 ------- 0 1.0 5.0 234 254
+ 3.0705 1 2 cbr 500 ------- 0 1.0 5.0 235 255
d 3.0705 1 2 cbr 500 ------- 0 1.0 5.0 235 255
+ 3.0708 1 2 cbr 500 ------- 0 1.0 5.0 236 256
d 3.0708 1 2 cbr 500 ------- 0 1.0 5.0 236 256
+ 3.0711 1 2 cbr 500 ------- 0 1.0 5.0 237 257
d 3.0711 1 2 cbr 500 ------- 0 1.0 5.0 237 257
+ 3.0714 1 2 cbr 500 ------- 0 1.0 5.0 238 258
d 3.0714 1 2 cbr 500 ------- 0 1.0 5.0 238 258
+ 3.0717 1 2 cbr 500 ------- 0 1.0 5.0 239 259
d 3.0717 1 2 cbr 500 ------- 0 1.0 5.0 239 259
- 3.072 1 2 cbr 500 ------- 0 1.0 5.0 36 52
r 3.072 1 2 cbr 500 ------- 0 1.0 5.0 30 46
+ 3.072 2 3 cbr 500 ------- 0 1.0 5.0 30 46
+ 3.072 1 2 cbr 500 ------- 0 1.0 5.0 240 260
+ 3.0723 1 2 cbr 500 ------- 0 1.0 5.0 241 261
d 3.0723 1 2 cbr 500 ------- 0 1.0 5.0 241 261
+ 3.0726 1 2 cbr 500 ------- 0 1.0 5.0 242 262
d 3.0726 1 2 cbr 500 ------- 0 1.0 5.0 242 262
+ 3.0729 1 2 cbr 500 ------- 0 1.0 5.0 243 263
d 3.0729 1 2 cbr 500 ------- 0 1.0 5.0 243 263
+ 3.0732 1 2 cbr 500 ------- 0 1.0 5.0 244 264
d 3.0732 1 2 cbr 500 ------- 0 1.0 5.0 244 264
+ 3.0735 1 2 cbr 500 ------- 0 1.0 5.0 245 265
d 3.0735 1 2 cbr 500 ------- 0 1.0 5.0 245 265
+ 3.0738 1 2 cbr 500 ------- 0 1.0 5.0 246 266
d 3.0738 1 2 cbr 500 ------- 0 1.0 5.0 246 266
- 3.074 1 2 cbr 500 ------- 0 1.0 5.0 37 53
r 3.074 1 2 cbr 500 ------- 0 1.0 5.0 31 47
+ 3.074 2 3 cbr 500 ------- 0 1.0 5.0 31 47
+ 3.0741 1 2 cbr 500 ------- 0 1.0 5.0 247 267