+ 0.1 1 2 cbr 1000 ------- 2 1.0 5.0 0 0
- 0.1 1 2 cbr 1000 ------- 2 1.0 5.0 0 0
r 0.114 1 2 cbr 1000 ------- 2 1.0 5.0 0 0
+ 0.9 1 2 cbr 1000 ------- 2 1.0 5.0 1 1
- 0.9 1 2 cbr 1000 ------- 2 1.0 5.0 1 1
r 0.914 1 2 cbr 1000 ------- 2 1.0 5.0 1 1
+ 1.7 1 2 cbr 1000 ------- 2 1.0 5.0 2 7
- 1.7 1 2 cbr 1000 ------- 2 1.0 5.0 2 7
r 1.714 1 2 cbr 1000 ------- 2 1.0 5.0 2 7
+ 2.5 1 2 cbr 1000 ------- 2 1.0 5.0 3 19
- 2.5 1 2 cbr 1000 ------- 2 1.0 5.0 3 19
r 2.514 1 2 cbr 1000 ------- 2 1.0 5.0 3 19
+ 3.3 1 2 cbr 1000 ------- 2 1.0 5.0 4 47
- 3.3 1 2 cbr 1000 ------- 2 1.0 5.0 4 47
r 3.314 1 2 cbr 1000 ------- 2 1.0 5.0 4 47
+ 4.1 1 2 cbr 1000 ------- 2 1.0 5.0 5 102
- 4.1 1 2 cbr 1000 ------- 2 1.0 5.0 5 102
r 4.114 1 2 cbr 1000 ------- 2 1.0 5.0 5 102
+ 4.9 1 2 cbr 1000 ------- 2 1.0 5.0 6 190
- 4.9 1 2 cbr 1000 ------- 2 1.0 5.0 6 190
r 4.914 1 2 cbr 1000 ------- 2 1.0 5.0 6 190
+ 5.7 1 2 cbr 1000 ------- 2 1.0 5.0 7 287
- 5.7 1 2 cbr 1000 ------- 2 1.0 5.0 7 287
r 5.714 1 2 cbr 1000 ------- 2 1.0 5.0 7 287
+ 6.5 1 2 cbr 1000 ------- 2 1.0 5.0 8 392
- 6.5 1 2 cbr 1000 ------- 2 1.0 5.0 8 392
r 6.514 1 2 cbr 1000 ------- 2 1.0 5.0 8 392
+ 7.3 1 2 cbr 1000 ------- 2 1.0 5.0 9 480
- 7.3 1 2 cbr 1000 ------- 2 1.0 5.0 9 480
r 7.314 1 2 cbr 1000 ------- 2 1.0 5.0 9 480
+ 8.1 1 2 cbr 1000 ------- 2 1.0 5.0 10 536
- 8.1 1 2 cbr 1000 ------- 2 1.0 5.0 10 536
r 8.114 1 2 cbr 1000 ------- 2 1.0 5.0 10 536
+ 8.9 1 2 cbr 1000 ------- 2 1.0 5.0 11 615
- 8.9 1 2 cbr 1000 ------- 2 1.0 5.0 11 615
r 8.914 1 2 cbr 1000 ------- 2 1.0 5.0 11 615
+ 9.7 1 2 cbr 1000 ------- 2 1.0 5.0 12 694
- 9.7 1 2 cbr 1000 ------- 2 1.0 5.0 12 694
r 9.714 1 2 cbr 1000 ------- 2 1.0 5.0 12 694
+ 10.5 1 2 cbr 1000 ------- 2 1.0 5.0 13 718
- 10.5 1 2 cbr 1000 ------- 2 1.0 5.0 13 718
r 10.514 1 2 cbr 1000 ------- 2 1.0 5.0 13 718
+ 11.3 1 2 cbr 1000 ------- 2 1.0 5.0 14 752
- 11.3 1 2 cbr 1000 ------- 2 1.0 5.0 14 752
r 11.314 1 2 cbr 1000 ------- 2 1.0 5.0 14 752
+ 12.1 1 2 cbr 1000 ------- 2 1.0 5.0 15 809
- 12.1 1 2 cbr 1000 ------- 2 1.0 5.0 15 809
r 12.114 1 2 cbr 1000 ------- 2 1.0 5.0 15 809
+ 12.9 1 2 cbr 1000 ------- 2 1.0 5.0 16 899
- 12.9 1 2 cbr 1000 ------- 2 1.0 5.0 16 899
r 12.914 1 2 cbr 1000 ------- 2 1.0 5.0 16 899
+ 13.7 1 2 cbr 1000 ------- 2 1.0 5.0 17 988
- 13.7 1 2 cbr 1000 ------- 2 1.0 5.0 17 988
r 13.714 1 2 cbr 1000 ------- 2 1.0 5.0 17 988
+ 14.5 1 2 cbr 1000 ------- 2 1.0 5.0 18 1062
- 14.5 1 2 cbr 1000 ------- 2 1.0 5.0 18 1062
r 14.514 1 2 cbr 1000 ------- 2 1.0 5.0 18 1062
+ 15.3 1 2 cbr 1000 ------- 2 1.0 5.0 19 1139
- 15.3 1 2 cbr 1000 ------- 2 1.0 5.0 19 1139
r 15.314 1 2 cbr 1000 ------- 2 1.0 5.0 19 1139
+ 16.1 1 2 cbr 1000 ------- 2 1.0 5.0 20 1212
- 16.1 1 2 cbr 1000 ------- 2 1.0 5.0 20 1212
r 16.114 1 2 cbr 1000 ------- 2 1.0 5.0 20 1212
+ 16.9 1 2 cbr 1000 ------- 2 1.0 5.0 21 1289
- 16.9 1 2 cbr 1000 ------- 2 1.0 5.0 21 1289
r 16.914 1 2 cbr 1000 ------- 2 1.0 5.0 21 1289
+ 17.7 1 2 cbr 1000 ------- 2 1.0 5.0 22 1363
- 17.7 1 2 cbr 1000 ------- 2 1.0 5.0 22 1363
r 17.714 1 2 cbr 1000 ------- 2 1.0 5.0 22 1363
+ 18.5 1 2 cbr 1000 ------- 2 1.0 5.0 23 1440
- 18.5 1 2 cbr 1000 ------- 2 1.0 5.0 23 1440
r 18.514 1 2 cbr 1000 ------- 2 1.0 5.0 23 1440
+ 19.3 1 2 cbr 1000 ------- 2 1.0 5.0 24 1514
- 19.3 1 2 cbr 1000 ------- 2 1.0 5.0 24 1514
r 19.314 1 2 cbr 1000 ------- 2 1.0 5.0 24 1514
+ 20.1 1 2 cbr 1000 ------- 2 1.0 5.0 25 1590
- 20.1 1 2 cbr 1000 ------- 2 1.0 5.0 25 1590
r 20.114 1 2 cbr 1000 ------- 2 1.0 5.0 25 1590
+ 20.9 1 2 cbr 1000 ------- 2 1.0 5.0 26 1664
- 20.9 1 2 cbr 1000 ------- 2 1.0 5.0 26 1664
r 20.914 1 2 cbr 1000 ------- 2 1.0 5.0 26 1664
+ 21.7 1 2 cbr 1000 ------- 2 1.0 5.0 27 1741
- 21.7 1 2 cbr 1000 ------- 2 1.0 5.0 27 1741
r 21.714 1 2 cbr 1000 ------- 2 1.0 5.0 27 1741
+ 22.5 1 2 cbr 1000 ------- 2 1.0 5.0 28 1814
- 22.5 1 2 cbr 1000 ------- 2 1.0 5.0 28 1814
r 22.514 1 2 cbr 1000 ------- 2 1.0 5.0 28 1814
+ 23.3 1 2 cbr 1000 ------- 2 1.0 5.0 29 1891
- 23.3 1 2 cbr 1000 ------- 2 1.0 5.0 29 1891
r 23.314 1 2 cbr 1000 ------- 2 1.0 5.0 29 1891
+ 24.1 1 2 cbr 1000 ------- 2 1.0 5.0 30 1965
- 24.1 1 2 cbr 1000 ------- 2 1.0 5.0 30 1965
r 24.114 1 2 cbr 1000 ------- 2 1.0 5.0 30 1965
+ 24.9 1 2 cbr 1000 ------- 2 1.0 5.0 31 2041
- 24.9 1 2 cbr 1000 ------- 2 1.0 5.0 31 2041
r 24.914 1 2 cbr 1000 ------- 2 1.0 5.0 31 2041
+ 25.7 1 2 cbr 1000 ------- 2 1.0 5.0 32 2115
- 25.7 1 2 cbr 1000 ------- 2 1.0 5.0 32 2115
r 25.714 1 2 cbr 1000 ------- 2 1.0 5.0 32 2115
+ 26.5 1 2 cbr 1000 ------- 2 1.0 5.0 33 2192
- 26.5 1 2 cbr 1000 ------- 2 1.0 5.0 33 2192
r 26.514 1 2 cbr 1000 ------- 2 1.0 5.0 33 2192
+ 27.3 1 2 cbr 1000 ------- 2 1.0 5.0 34 2265
- 27.3 1 2 cbr 1000 ------- 2 1.0 5.0 34 2265
r 27.314 1 2 cbr 1000 ------- 2 1.0 5.0 34 2265
+ 28.1 1 2 cbr 1000 ------- 2 1.0 5.0 35 2342
- 28.1 1 2 cbr 1000 ------- 2 1.0 5.0 35 2342
r 28.114 1 2 cbr 1000 ------- 2 1.0 5.0 35 2342
+ 28.9 1 2 cbr 1000 ------- 2 1.0 5.0 36 2415
- 28.9 1 2 cbr 1000 ------- 2 1.0 5.0 36 2415
r 28.914 1 2 cbr 1000 ------- 2 1.0 5.0 36 2415
+ 29.7 1 2 cbr 1000 ------- 2 1.0 5.0 37 2492
- 29.7 1 2 cbr 1000 ------- 2 1.0 5.0 37 2492
r 29.714 1 2 cbr 1000 ------- 2 1.0 5.0 37 2492
+ 30.5 1 2 cbr 1000 ------- 2 1.0 5.0 38 2566
- 30.5 1 2 cbr 1000 ------- 2 1.0 5.0 38 2566
r 30.514 1 2 cbr 1000 ------- 2 1.0 5.0 38 2566
+ 31.3 1 2 cbr 1000 ------- 2 1.0 5.0 39 2642
- 31.3 1 2 cbr 1000 ------- 2 1.0 5.0 39 2642
r 31.314 1 2 cbr 1000 ------- 2 1.0 5.0 39 2642
+ 32.1 1 2 cbr 1000 ------- 2 1.0 5.0 40 2716
- 32.1 1 2 cbr 1000 ------- 2 1.0 5.0 40 2716
r 32.114 1 2 cbr 1000 ------- 2 1.0 5.0 40 2716
+ 32.9 1 2 cbr 1000 ------- 2 1.0 5.0 41 2792
- 32.9 1 2 cbr 1000 ------- 2 1.0 5.0 41 2792
r 32.914 1 2 cbr 1000 ------- 2 1.0 5.0 41 2792
+ 33.7 1 2 cbr 1000 ------- 2 1.0 5.0 42 2866
- 33.7 1 2 cbr 1000 ------- 2 1.0 5.0 42 2866
r 33.714 1 2 cbr 1000 ------- 2 1.0 5.0 42 2866
+ 34.5 1 2 cbr 1000 ------- 2 1.0 5.0 43 2942
- 34.5 1 2 cbr 1000 ------- 2 1.0 5.0 43 2942
r 34.514 1 2 cbr 1000 ------- 2 1.0 5.0 43 2942
+ 35.3 1 2 cbr 1000 ------- 2 1.0 5.0 44 3016
- 35.3 1 2 cbr 1000 ------- 2 1.0 5.0 44 3016
r 35.314 1 2 cbr 1000 ------- 2 1.0 5.0 44 3016
+ 36.1 1 2 cbr 1000 ------- 2 1.0 5.0 45 3093
- 36.1 1 2 cbr 1000 ------- 2 1.0 5.0 45 3093
r 36.114 1 2 cbr 1000 ------- 2 1.0 5.0 45 3093
+ 36.9 1 2 cbr 1000 ------- 2 1.0 5.0 46 3166
- 36.9 1 2 cbr 1000 ------- 2 1.0 5.0 46 3166
r 36.914 1 2 cbr 1000 ------- 2 1.0 5.0 46 3166
+ 37.7 1 2 cbr 1000 ------- 2 1.0 5.0 47 3241
- 37.7 1 2 cbr 1000 ------- 2 1.0 5.0 47 3241
r 37.714 1 2 cbr 1000 ------- 2 1.0 5.0 47 3241
+ 38.5 1 2 cbr 1000 ------- 2 1.0 5.0 48 3316
- 38.5 1 2 cbr 1000 ------- 2 1.0 5.0 48 3316
r 38.514 1 2 cbr 1000 ------- 2 1.0 5.0 48 3316
+ 39.3 1 2 cbr 1000 ------- 2 1.0 5.0 49 3391
- 39.3 1 2 cbr 1000 ------- 2 1.0 5.0 49 3391
r 39.314 1 2 cbr 1000 ------- 2 1.0 5.0 49 3391
+ 40.1 1 2 cbr 1000 ------- 2 1.0 5.0 50 3466
- 40.1 1 2 cbr 1000 ------- 2 1.0 5.0 50 3466
r 40.114 1 2 cbr 1000 ------- 2 1.0 5.0 50 3466
+ 40.9 1 2 cbr 1000 ------- 2 1.0 5.0 51 3541
- 40.9 1 2 cbr 1000 ------- 2 1.0 5.0 51 3541
r 40.914 1 2 cbr 1000 ------- 2 1.0 5.0 51 3541
+ 41.7 1 2 cbr 1000 ------- 2 1.0 5.0 52 3616
- 41.7 1 2 cbr 1000 ------- 2 1.0 5.0 52 3616
r 41.714 1 2 cbr 1000 ------- 2 1.0 5.0 52 3616
+ 42.5 1 2 cbr 1000 ------- 2 1.0 5.0 53 3691
- 42.5 1 2 cbr 1000 ------- 2 1.0 5.0 53 3691
r 42.514 1 2 cbr 1000 ------- 2 1.0 5.0 53 3691
+ 43.3 1 2 cbr 1000 ------- 2 1.0 5.0 54 3766
- 43.3 1 2 cbr 1000 ------- 2 1.0 5.0 54 3766
r 43.314 1 2 cbr 1000 ------- 2 1.0 5.0 54 3766
+ 44.1 1 2 cbr 1000 ------- 2 1.0 5.0 55 3842
- 44.1 1 2 cbr 1000 ------- 2 1.0 5.0 55 3842
r 44.114 1 2 cbr 1000 ------- 2 1.0 5.0 55 3842
+ 44.9 1 2 cbr 1000 ------- 2 1.0 5.0 56 3918
- 44.9 1 2 cbr 1000 ------- 2 1.0 5.0 56 3918
r 44.914 1 2 cbr 1000 ------- 2 1.0 5.0 56 3918
+ 45.7 1 2 cbr 1000 ------- 2 1.0 5.0 57 3992
- 45.7 1 2 cbr 1000 ------- 2 1.0 5.0 57 3992
r 45.714 1 2 cbr 1000 ------- 2 1.0 5.0 57 3992
+ 46.5 1 2 cbr 1000 ------- 2 1.0 5.0 58 4068
- 46.5 1 2 cbr 1000 ------- 2 1.0 5.0 58 4068
r 46.514 1 2 cbr 1000 ------- 2 1.0 5.0 58 4068
+ 47.3 1 2 cbr 1000 ------- 2 1.0 5.0 59 4141
- 47.3 1 2 cbr 1000 ------- 2 1.0 5.0 59 4141
r 47.314 1 2 cbr 1000 ------- 2 1.0 5.0 59 4141
+ 48.1 1 2 cbr 1000 ------- 2 1.0 5.0 60 4218
- 48.1 1 2 cbr 1000 ------- 2 1.0 5.0 60 4218
r 48.114 1 2 cbr 1000 ------- 2 1.0 5.0 60 4218
+ 48.9 1 2 cbr 1000 ------- 2 1.0 5.0 61 4291
- 48.9 1 2 cbr 1000 ------- 2 1.0 5.0 61 4291
r 48.914 1 2 cbr 1000 ------- 2 1.0 5.0 61 4291
+ 49.7 1 2 cbr 1000 ------- 2 1.0 5.0 62 4368
- 49.7 1 2 cbr 1000 ------- 2 1.0 5.0 62 4368
r 49.714 1 2 cbr 1000 ------- 2 1.0 5.0 62 4368
+ 50.5 1 2 cbr 1000 ------- 2 1.0 5.0 63 4441
- 50.5 1 2 cbr 1000 ------- 2 1.0 5.0 63 4441
r 50.514 1 2 cbr 1000 ------- 2 1.0 5.0 63 4441
+ 51.3 1 2 cbr 1000 ------- 2 1.0 5.0 64 4518
- 51.3 1 2 cbr 1000 ------- 2 1.0 5.0 64 4518
r 51.314 1 2 cbr 1000 ------- 2 1.0 5.0 64 4518
+ 52.1 1 2 cbr 1000 ------- 2 1.0 5.0 65 4591
- 52.1 1 2 cbr 1000 ------- 2 1.0 5.0 65 4591
r 52.114 1 2 cbr 1000 ------- 2 1.0 5.0 65 4591
+ 52.9 1 2 cbr 1000 ------- 2 1.0 5.0 66 4668
- 52.9 1 2 cbr 1000 ------- 2 1.0 5.0 66 4668
r 52.914 1 2 cbr 1000 ------- 2 1.0 5.0 66 4668
+ 53.7 1 2 cbr 1000 ------- 2 1.0 5.0 67 4741
- 53.7 1 2 cbr 1000 ------- 2 1.0 5.0 67 4741
r 53.714 1 2 cbr 1000 ------- 2 1.0 5.0 67 4741
+ 54.5 1 2 cbr 1000 ------- 2 1.0 5.0 68 4817
- 54.5 1 2 cbr 1000 ------- 2 1.0 5.0 68 4817
r 54.514 1 2 cbr 1000 ------- 2 1.0 5.0 68 4817
+ 55.3 1 2 cbr 1000 ------- 2 1.0 5.0 69 4891
- 55.3 1 2 cbr 1000 ------- 2 1.0 5.0 69 4891
r 55.314 1 2 cbr 1000 ------- 2 1.0 5.0 69 4891
+ 56.1 1 2 cbr 1000 ------- 2 1.0 5.0 70 4967
- 56.1 1 2 cbr 1000 ------- 2 1.0 5.0 70 4967
r 56.114 1 2 cbr 1000 ------- 2 1.0 5.0 70 4967
+ 56.9 1 2 cbr 1000 ------- 2 1.0 5.0 71 5041
- 56.9 1 2 cbr 1000 ------- 2 1.0 5.0 71 5041
r 56.914 1 2 cbr 1000 ------- 2 1.0 5.0 71 5041
+ 57.7 1 2 cbr 1000 ------- 2 1.0 5.0 72 5117
- 57.7 1 2 cbr 1000 ------- 2 1.0 5.0 72 5117
r 57.714 1 2 cbr 1000 ------- 2 1.0 5.0 72 5117
+ 58.5 1 2 cbr 1000 ------- 2 1.0 5.0 73 5191
- 58.5 1 2 cbr 1000 ------- 2 1.0 5.0 73 5191
r 58.514 1 2 cbr 1000 ------- 2 1.0 5.0 73 5191
+ 59.3 1 2 cbr 1000 ------- 2 1.0 5.0 74 5267
- 59.3 1 2 cbr 1000 ------- 2 1.0 5.0 74 5267
r 59.314 1 2 cbr 1000 ------- 2 1.0 5.0 74 5267
+ 60.1 1 2 cbr 1000 ------- 2 1.0 5.0 75 5340
- 60.1 1 2 cbr 1000 ------- 2 1.0 5.0 75 5340
r 60.114 1 2 cbr 1000 ------- 2 1.0 5.0 75 5340
+ 60.9 1 2 cbr 1000 ------- 2 1.0 5.0 76 5417
- 60.9 1 2 cbr 1000 ------- 2 1.0 5.0 76 5417
r 60.914 1 2 cbr 1000 ------- 2 1.0 5.0 76 5417
+ 61.7 1 2 cbr 1000 ------- 2 1.0 5.0 77 5491
- 61.7 1 2 cbr 1000 ------- 2 1.0 5.0 77 5491
r 61.714 1 2 cbr 1000 ------- 2 1.0 5.0 77 5491
+ 62.5 1 2 cbr 1000 ------- 2 1.0 5.0 78 5567
- 62.5 1 2 cbr 1000 ------- 2 1.0 5.0 78 5567
r 62.514 1 2 cbr 1000 ------- 2 1.0 5.0 78 5567
+ 63.3 1 2 cbr 1000 ------- 2 1.0 5.0 79 5641
- 63.3 1 2 cbr 1000 ------- 2 1.0 5.0 79 5641
r 63.314 1 2 cbr 1000 ------- 2 1.0 5.0 79 5641
+ 64.1 1 2 cbr 1000 ------- 2 1.0 5.0 80 5716
- 64.1 1 2 cbr 1000 ------- 2 1.0 5.0 80 5716
r 64.114 1 2 cbr 1000 ------- 2 1.0 5.0 80 5716
+ 64.9 1 2 cbr 1000 ------- 2 1.0 5.0 81 5791
- 64.9 1 2 cbr 1000 ------- 2 1.0 5.0 81 5791
r 64.914 1 2 cbr 1000 ------- 2 1.0 5.0 81 5791
+ 65.7 1 2 cbr 1000 ------- 2 1.0 5.0 82 5867
- 65.7 1 2 cbr 1000 ------- 2 1.0 5.0 82 5867
r 65.714 1 2 cbr 1000 ------- 2 1.0 5.0 82 5867
+ 66.5 1 2 cbr 1000 ------- 2 1.0 5.0 83 5941
- 66.5 1 2 cbr 1000 ------- 2 1.0 5.0 83 5941
r 66.514 1 2 cbr 1000 ------- 2 1.0 5.0 83 5941
+ 67.3 1 2 cbr 1000 ------- 2 1.0 5.0 84 6017
- 67.3 1 2 cbr 1000 ------- 2 1.0 5.0 84 6017
r 67.314 1 2 cbr 1000 ------- 2 1.0 5.0 84 6017
+ 68.1 1 2 cbr 1000 ------- 2 1.0 5.0 85 6090
- 68.1 1 2 cbr 1000 ------- 2 1.0 5.0 85 6090
r 68.114 1 2 cbr 1000 ------- 2 1.0 5.0 85 6090
+ 68.9 1 2 cbr 1000 ------- 2 1.0 5.0 86 6167
- 68.9 1 2 cbr 1000 ------- 2 1.0 5.0 86 6167
r 68.914 1 2 cbr 1000 ------- 2 1.0 5.0 86 6167
+ 69.7 1 2 cbr 1000 ------- 2 1.0 5.0 87 6240
- 69.7 1 2 cbr 1000 ------- 2 1.0 5.0 87 6240
r 69.714 1 2 cbr 1000 ------- 2 1.0 5.0 87 6240
+ 70.5 1 2 cbr 1000 ------- 2 1.0 5.0 88 6317
- 70.5 1 2 cbr 1000 ------- 2 1.0 5.0 88 6317
r 70.514 1 2 cbr 1000 ------- 2 1.0 5.0 88 6317
+ 71.3 1 2 cbr 1000 ------- 2 1.0 5.0 89 6390
- 71.3 1 2 cbr 1000 ------- 2 1.0 5.0 89 6390
r 71.314 1 2 cbr 1000 ------- 2 1.0 5.0 89 6390
+ 72.1 1 2 cbr 1000 ------- 2 1.0 5.0 90 6466
- 72.1 1 2 cbr 1000 ------- 2 1.0 5.0 90 6466
r 72.114 1 2 cbr 1000 ------- 2 1.0 5.0 90 6466
+ 72.9 1 2 cbr 1000 ------- 2 1.0 5.0 91 6540
- 72.9 1 2 cbr 1000 ------- 2 1.0 5.0 91 6540
r 72.914 1 2 cbr 1000 ------- 2 1.0 5.0 91 6540
+ 73.7 1 2 cbr 1000 ------- 2 1.0 5.0 92 6616
- 73.7 1 2 cbr 1000 ------- 2 1.0 5.0 92 6616
r 73.714 1 2 cbr 1000 ------- 2 1.0 5.0 92 6616
+ 74.5 1 2 cbr 1000 ------- 2 1.0 5.0 93 6689
- 74.5 1 2 cbr 1000 ------- 2 1.0 5.0 93 6689
r 74.514 1 2 cbr 1000 ------- 2 1.0 5.0 93 6689
+ 75.3 1 2 cbr 1000 ------- 2 1.0 5.0 94 6766
- 75.3 1 2 cbr 1000 ------- 2 1.0 5.0 94 6766
r 75.314 1 2 cbr 1000 ------- 2 1.0 5.0 94 6766
+ 76.1 1 2 cbr 1000 ------- 2 1.0 5.0 95 6839
- 76.1 1 2 cbr 1000 ------- 2 1.0 5.0 95 6839
r 76.114 1 2 cbr 1000 ------- 2 1.0 5.0 95 6839
+ 76.9 1 2 cbr 1000 ------- 2 1.0 5.0 96 6915
- 76.9 1 2 cbr 1000 ------- 2 1.0 5.0 96 6915
r 76.914 1 2 cbr 1000 ------- 2 1.0 5.0 96 6915
+ 77.7 1 2 cbr 1000 ------- 2 1.0 5.0 97 6989
- 77.7 1 2 cbr 1000 ------- 2 1.0 5.0 97 6989
r 77.714 1 2 cbr 1000 ------- 2 1.0 5.0 97 6989
+ 78.5 1 2 cbr 1000 ------- 2 1.0 5.0 98 7063
- 78.5 1 2 cbr 1000 ------- 2 1.0 5.0 98 7063
r 78.514 1 2 cbr 1000 ------- 2 1.0 5.0 98 7063
+ 79.3 1 2 cbr 1000 ------- 2 1.0 5.0 99 7139
- 79.3 1 2 cbr 1000 ------- 2 1.0 5.0 99 7139
r 79.314 1 2 cbr 1000 ------- 2 1.0 5.0 99 7139
+ 80.1 1 2 cbr 1000 ------- 2 1.0 5.0 100 7213
- 80.1 1 2 cbr 1000 ------- 2 1.0 5.0 100 7213
r 80.114 1 2 cbr 1000 ------- 2 1.0 5.0 100 7213
+ 80.9 1 2 cbr 1000 ------- 2 1.0 5.0 101 7288
- 80.9 1 2 cbr 1000 ------- 2 1.0 5.0 101 7288
r 80.914 1 2 cbr 1000 ------- 2 1.0 5.0 101 7288
+ 81.7 1 2 cbr 1000 ------- 2 1.0 5.0 102 7363
- 81.7 1 2 cbr 1000 ------- 2 1.0 5.0 102 7363
r 81.714 1 2 cbr 1000 ------- 2 1.0 5.0 102 7363
+ 82.5 1 2 cbr 1000 ------- 2 1.0 5.0 103 7438
- 82.5 1 2 cbr 1000 ------- 2 1.0 5.0 103 7438
r 82.514 1 2 cbr 1000 ------- 2 1.0 5.0 103 7438
+ 83.3 1 2 cbr 1000 ------- 2 1.0 5.0 104 7512
- 83.3 1 2 cbr 1000 ------- 2 1.0 5.0 104 7512
r 83.314 1 2 cbr 1000 ------- 2 1.0 5.0 104 7512
+ 84.1 1 2 cbr 1000 ------- 2 1.0 5.0 105 7588
- 84.1 1 2 cbr 1000 ------- 2 1.0 5.0 105 7588
r 84.114 1 2 cbr 1000 ------- 2 1.0 5.0 105 7588
+ 84.9 1 2 cbr 1000 ------- 2 1.0 5.0 106 7661
- 84.9 1 2 cbr 1000 ------- 2 1.0 5.0 106 7661
r 84.914 1 2 cbr 1000 ------- 2 1.0 5.0 106 7661
+ 85.7 1 2 cbr 1000 ------- 2 1.0 5.0 107 7737
- 85.7 1 2 cbr 1000 ------- 2 1.0 5.0 107 7737
r 85.714 1 2 cbr 1000 ------- 2 1.0 5.0 107 7737
+ 86.5 1 2 cbr 1000 ------- 2 1.0 5.0 108 7811
- 86.5 1 2 cbr 1000 ------- 2 1.0 5.0 108 7811
r 86.514 1 2 cbr 1000 ------- 2 1.0 5.0 108 7811
+ 87.3 1 2 cbr 1000 ------- 2 1.0 5.0 109 7887
- 87.3 1 2 cbr 1000 ------- 2 1.0 5.0 109 7887
r 87.314 1 2 cbr 1000 ------- 2 1.0 5.0 109 7887
+ 88.1 1 2 cbr 1000 ------- 2 1.0 5.0 110 7957
- 88.1 1 2 cbr 1000 ------- 2 1.0 5.0 110 7957
r 88.114 1 2 cbr 1000 ------- 2 1.0 5.0 110 7957
+ 88.9 1 2 cbr 1000 ------- 2 1.0 5.0 111 8036
- 88.9 1 2 cbr 1000 ------- 2 1.0 5.0 111 8036
r 88.914 1 2 cbr 1000 ------- 2 1.0 5.0 111 8036
+ 89.7 1 2 cbr 1000 ------- 2 1.0 5.0 112 8110
- 89.7 1 2 cbr 1000 ------- 2 1.0 5.0 112 8110
r 89.714 1 2 cbr 1000 ------- 2 1.0 5.0 112 8110
+ 90.5 1 2 cbr 1000 ------- 2 1.0 5.0 113 8186
- 90.5 1 2 cbr 1000 ------- 2 1.0 5.0 113 8186
r 90.514 1 2 cbr 1000 ------- 2 1.0 5.0 113 8186
+ 91.3 1 2 cbr 1000 ------- 2 1.0 5.0 114 8260
- 91.3 1 2 cbr 1000 ------- 2 1.0 5.0 114 8260
r 91.314 1 2 cbr 1000 ------- 2 1.0 5.0 114 8260
+ 92.1 1 2 cbr 1000 ------- 2 1.0 5.0 115 8336
- 92.1 1 2 cbr 1000 ------- 2 1.0 5.0 115 8336
r 92.114 1 2 cbr 1000 ------- 2 1.0 5.0 115 8336
+ 92.9 1 2 cbr 1000 ------- 2 1.0 5.0 116 8410
- 92.9 1 2 cbr 1000 ------- 2 1.0 5.0 116 8410
r 92.914 1 2 cbr 1000 ------- 2 1.0 5.0 116 8410
+ 93.7 1 2 cbr 1000 ------- 2 1.0 5.0 117 8487
- 93.7 1 2 cbr 1000 ------- 2 1.0 5.0 117 8487
r 93.714 1 2 cbr 1000 ------- 2 1.0 5.0 117 8487
+ 94.5 1 2 cbr 1000 ------- 2 1.0 5.0 118 8560
- 94.5 1 2 cbr 1000 ------- 2 1.0 5.0 118 8560
r 94.514 1 2 cbr 1000 ------- 2 1.0 5.0 118 8560
+ 95.3 1 2 cbr 1000 ------- 2 1.0 5.0 119 8637
- 95.3 1 2 cbr 1000 ------- 2 1.0 5.0 119 8637
r 95.314 1 2 cbr 1000 ------- 2 1.0 5.0 119 8637
+ 96.1 1 2 cbr 1000 ------- 2 1.0 5.0 120 8710
- 96.1 1 2 cbr 1000 ------- 2 1.0 5.0 120 8710
r 96.114 1 2 cbr 1000 ------- 2 1.0 5.0 120 8710
+ 96.9 1 2 cbr 1000 ------- 2 1.0 5.0 121 8785
- 96.9 1 2 cbr 1000 ------- 2 1.0 5.0 121 8785
r 96.914 1 2 cbr 1000 ------- 2 1.0 5.0 121 8785
+ 97.7 1 2 cbr 1000 ------- 2 1.0 5.0 122 8861
- 97.7 1 2 cbr 1000 ------- 2 1.0 5.0 122 8861
r 97.714 1 2 cbr 1000 ------- 2 1.0 5.0 122 8861
+ 98.5 1 2 cbr 1000 ------- 2 1.0 5.0 123 8935
- 98.5 1 2 cbr 1000 ------- 2 1.0 5.0 123 8935
r 98.514 1 2 cbr 1000 ------- 2 1.0 5.0 123 8935
+ 99.3 1 2 cbr 1000 ------- 2 1.0 5.0 124 9011
- 99.3 1 2 cbr 1000 ------- 2 1.0 5.0 124 9011
r 99.314 1 2 cbr 1000 ------- 2 1.0 5.0 124 9011
+ 100.1 1 2 cbr 1000 ------- 2 1.0 5.0 125 9085
- 100.1 1 2 cbr 1000 ------- 2 1.0 5.0 125 9085
r 100.114 1 2 cbr 1000 ------- 2 1.0 5.0 125 9085
+ 100.9 1 2 cbr 1000 ------- 2 1.0 5.0 126 9161
- 100.9 1 2 cbr 1000 ------- 2 1.0 5.0 126 9161
r 100.914 1 2 cbr 1000 ------- 2 1.0 5.0 126 9161
+ 101.7 1 2 cbr 1000 ------- 2 1.0 5.0 127 9235
- 101.7 1 2 cbr 1000 ------- 2 1.0 5.0 127 9235
r 101.714 1 2 cbr 1000 ------- 2 1.0 5.0 127 9235
+ 102.5 1 2 cbr 1000 ------- 2 1.0 5.0 128 9311
- 102.5 1 2 cbr 1000 ------- 2 1.0 5.0 128 9311
r 102.514 1 2 cbr 1000 ------- 2 1.0 5.0 128 9311
+ 103.3 1 2 cbr 1000 ------- 2 1.0 5.0 129 9384
- 103.3 1 2 cbr 1000 ------- 2 1.0 5.0 129 9384
r 103.314 1 2 cbr 1000 ------- 2 1.0 5.0 129 9384
+ 104.1 1 2 cbr 1000 ------- 2 1.0 5.0 130 9461
- 104.1 1 2 cbr 1000 ------- 2 1.0 5.0 130 9461
r 104.114 1 2 cbr 1000 ------- 2 1.0 5.0 130 9461
+ 104.9 1 2 cbr 1000 ------- 2 1.0 5.0 131 9534
- 104.9 1 2 cbr 1000 ------- 2 1.0 5.0 131 9534
r 104.914 1 2 cbr 1000 ------- 2 1.0 5.0 131 9534
+ 105.7 1 2 cbr 1000 ------- 2 1.0 5.0 132 9611
- 105.7 1 2 cbr 1000 ------- 2 1.0 5.0 132 9611
r 105.714 1 2 cbr 1000 ------- 2 1.0 5.0 132 9611
+ 106.5 1 2 cbr 1000 ------- 2 1.0 5.0 133 9684
- 106.5 1 2 cbr 1000 ------- 2 1.0 5.0 133 9684
r 106.514 1 2 cbr 1000 ------- 2 1.0 5.0 133 9684
+ 107.3 1 2 cbr 1000 ------- 2 1.0 5.0 134 9761
- 107.3 1 2 cbr 1000 ------- 2 1.0 5.0 134 9761
r 107.314 1 2 cbr 1000 ------- 2 1.0 5.0 134 9761
+ 108.1 1 2 cbr 1000 ------- 2 1.0 5.0 135 9834
- 108.1 1 2 cbr 1000 ------- 2 1.0 5.0 135 9834
r 108.114 1 2 cbr 1000 ------- 2 1.0 5.0 135 9834
+ 108.9 1 2 cbr 1000 ------- 2 1.0 5.0 136 9911
- 108.9 1 2 cbr 1000 ------- 2 1.0 5.0 136 9911
r 108.914 1 2 cbr 1000 ------- 2 1.0 5.0 136 9911
+ 109.7 1 2 cbr 1000 ------- 2 1.0 5.0 137 9986
- 109.7 1 2 cbr 1000 ------- 2 1.0 5.0 137 9986
r 109.714 1 2 cbr 1000 ------- 2 1.0 5.0 137 9986
+ 110.5 1 2 cbr 1000 ------- 2 1.0 5.0 138 10063
- 110.5 1 2 cbr 1000 ------- 2 1.0 5.0 138 10063
r 110.514 1 2 cbr 1000 ------- 2 1.0 5.0 138 10063
+ 111.3 1 2 cbr 1000 ------- 2 1.0 5.0 139 10136
- 111.3 1 2 cbr 1000 ------- 2 1.0 5.0 139 10136
r 111.314 1 2 cbr 1000 ------- 2 1.0 5.0 139 10136
+ 112.1 1 2 cbr 1000 ------- 2 1.0 5.0 140 10213
- 112.1 1 2 cbr 1000 ------- 2 1.0 5.0 140 10213
r 112.114 1 2 cbr 1000 ------- 2 1.0 5.0 140 10213
+ 112.9 1 2 cbr 1000 ------- 2 1.0 5.0 141 10286
- 112.9 1 2 cbr 1000 ------- 2 1.0 5.0 141 10286
r 112.914 1 2 cbr 1000 ------- 2 1.0 5.0 141 10286
+ 113.7 1 2 cbr 1000 ------- 2 1.0 5.0 142 10363
- 113.7 1 2 cbr 1000 ------- 2 1.0 5.0 142 10363
r 113.714 1 2 cbr 1000 ------- 2 1.0 5.0 142 10363
+ 114.5 1 2 cbr 1000 ------- 2 1.0 5.0 143 10436
- 114.5 1 2 cbr 1000 ------- 2 1.0 5.0 143 10436
r 114.514 1 2 cbr 1000 ------- 2 1.0 5.0 143 10436
+ 115.3 1 2 cbr 1000 ------- 2 1.0 5.0 144 10513
- 115.3 1 2 cbr 1000 ------- 2 1.0 5.0 144 10513
r 115.314 1 2 cbr 1000 ------- 2 1.0 5.0 144 10513
+ 116.1 1 2 cbr 1000 ------- 2 1.0 5.0 145 10586
- 116.1 1 2 cbr 1000 ------- 2 1.0 5.0 145 10586
r 116.114 1 2 cbr 1000 ------- 2 1.0 5.0 145 10586
+ 116.9 1 2 cbr 1000 ------- 2 1.0 5.0 146 10663
- 116.9 1 2 cbr 1000 ------- 2 1.0 5.0 146 10663
r 116.914 1 2 cbr 1000 ------- 2 1.0 5.0 146 10663
+ 117.7 1 2 cbr 1000 ------- 2 1.0 5.0 147 10736
- 117.7 1 2 cbr 1000 ------- 2 1.0 5.0 147 10736
r 117.714 1 2 cbr 1000 ------- 2 1.0 5.0 147 10736
+ 118.5 1 2 cbr 1000 ------- 2 1.0 5.0 148 10813
- 118.5 1 2 cbr 1000 ------- 2 1.0 5.0 148 10813
r 118.514 1 2 cbr 1000 ------- 2 1.0 5.0 148 10813
+ 119.3 1 2 cbr 1000 ------- 2 1.0 5.0 149 10886
- 119.3 1 2 cbr 1000 ------- 2 1.0 5.0 149 10886
r 119.314 1 2 cbr 1000 ------- 2 1.0 5.0 149 10886
+ 120.1 1 2 cbr 1000 ------- 2 1.0 5.0 150 10962
- 120.1 1 2 cbr 1000 ------- 2 1.0 5.0 150 10962
r 120.114 1 2 cbr 1000 ------- 2 1.0 5.0 150 10962
+ 120.9 1 2 cbr 1000 ------- 2 1.0 5.0 151 11036
- 120.9 1 2 cbr 1000 ------- 2 1.0 5.0 151 11036
r 120.914 1 2 cbr 1000 ------- 2 1.0 5.0 151 11036
+ 121.7 1 2 cbr 1000 ------- 2 1.0 5.0 152 11112
- 121.7 1 2 cbr 1000 ------- 2 1.0 5.0 152 11112
r 121.714 1 2 cbr 1000 ------- 2 1.0 5.0 152 11112
+ 122.5 1 2 cbr 1000 ------- 2 1.0 5.0 153 11186
- 122.5 1 2 cbr 1000 ------- 2 1.0 5.0 153 11186
r 122.514 1 2 cbr 1000 ------- 2 1.0 5.0 153 11186
+ 123.3 1 2 cbr 1000 ------- 2 1.0 5.0 154 11262
- 123.3 1 2 cbr 1000 ------- 2 1.0 5.0 154 11262
r 123.314 1 2 cbr 1000 ------- 2 1.0 5.0 154 11262
+ 124.1 1 2 cbr 1000 ------- 2 1.0 5.0 155 11329
- 124.1 1 2 cbr 1000 ------- 2 1.0 5.0 155 11329
r 124.114 1 2 cbr 1000 ------- 2 1.0 5.0 155 11329
