+ 0.114 2 3 cbr 1000 ------- 2 1.0 5.0 0 0
- 0.114 2 3 cbr 1000 ------- 2 1.0 5.0 0 0
r 0.240667 2 3 cbr 1000 ------- 2 1.0 5.0 0 0
+ 0.914 2 3 cbr 1000 ------- 2 1.0 5.0 1 1
- 0.914 2 3 cbr 1000 ------- 2 1.0 5.0 1 1
+ 1.01016 2 3 tcp 40 ------- 1 0.0 4.0 0 2
- 1.01016 2 3 tcp 40 ------- 1 0.0 4.0 0 2
r 1.040667 2 3 cbr 1000 ------- 2 1.0 5.0 1 1
r 1.111227 2 3 tcp 40 ------- 1 0.0 4.0 0 2
+ 1.394829 2 3 tcp 592 ------- 1 0.0 4.0 1 4
- 1.394829 2 3 tcp 592 ------- 1 0.0 4.0 1 4
+ 1.397197 2 3 tcp 592 ------- 1 0.0 4.0 2 5
- 1.410616 2 3 tcp 592 ------- 1 0.0 4.0 2 5
r 1.510616 2 3 tcp 592 ------- 1 0.0 4.0 1 4
r 1.526403 2 3 tcp 592 ------- 1 0.0 4.0 2 5
+ 1.714 2 3 cbr 1000 ------- 2 1.0 5.0 2 7
- 1.714 2 3 cbr 1000 ------- 2 1.0 5.0 2 7
+ 1.810005 2 3 tcp 592 ------- 1 0.0 4.0 3 8
- 1.810005 2 3 tcp 592 ------- 1 0.0 4.0 3 8
+ 1.812373 2 3 tcp 592 ------- 1 0.0 4.0 4 9
+ 1.814741 2 3 tcp 592 ------- 1 0.0 4.0 5 10
- 1.825792 2 3 tcp 592 ------- 1 0.0 4.0 4 9
r 1.840667 2 3 cbr 1000 ------- 2 1.0 5.0 2 7
- 1.841579 2 3 tcp 592 ------- 1 0.0 4.0 5 10
r 1.925792 2 3 tcp 592 ------- 1 0.0 4.0 3 8
r 1.941579 2 3 tcp 592 ------- 1 0.0 4.0 4 9
r 1.957365 2 3 tcp 592 ------- 1 0.0 4.0 5 10
+ 2.225181 2 3 tcp 592 ------- 1 0.0 4.0 6 13
- 2.225181 2 3 tcp 592 ------- 1 0.0 4.0 6 13
+ 2.227549 2 3 tcp 592 ------- 1 0.0 4.0 7 14
+ 2.229917 2 3 tcp 592 ------- 1 0.0 4.0 8 15
- 2.240968 2 3 tcp 592 ------- 1 0.0 4.0 7 14
- 2.256755 2 3 tcp 592 ------- 1 0.0 4.0 8 15
r 2.340968 2 3 tcp 592 ------- 1 0.0 4.0 6 13
+ 2.340968 2 3 tcp 592 ------- 1 0.0 4.0 9 16
- 2.340968 2 3 tcp 592 ------- 1 0.0 4.0 9 16
+ 2.343336 2 3 tcp 592 ------- 1 0.0 4.0 10 17
r 2.356755 2 3 tcp 592 ------- 1 0.0 4.0 7 14
- 2.356755 2 3 tcp 592 ------- 1 0.0 4.0 10 17
r 2.372541 2 3 tcp 592 ------- 1 0.0 4.0 8 15
r 2.456755 2 3 tcp 592 ------- 1 0.0 4.0 9 16
r 2.472541 2 3 tcp 592 ------- 1 0.0 4.0 10 17
+ 2.514 2 3 cbr 1000 ------- 2 1.0 5.0 3 19
- 2.514 2 3 cbr 1000 ------- 2 1.0 5.0 3 19
+ 2.640357 2 3 tcp 592 ------- 1 0.0 4.0 11 21
- 2.640357 2 3 tcp 592 ------- 1 0.0 4.0 11 21
r 2.640667 2 3 cbr 1000 ------- 2 1.0 5.0 3 19
+ 2.642725 2 3 tcp 592 ------- 1 0.0 4.0 12 22
+ 2.645093 2 3 tcp 592 ------- 1 0.0 4.0 13 23
- 2.656144 2 3 tcp 592 ------- 1 0.0 4.0 12 22
- 2.671931 2 3 tcp 592 ------- 1 0.0 4.0 13 23
+ 2.740357 2 3 tcp 592 ------- 1 0.0 4.0 14 25
- 2.740357 2 3 tcp 592 ------- 1 0.0 4.0 14 25
+ 2.742725 2 3 tcp 592 ------- 1 0.0 4.0 15 26
+ 2.745093 2 3 tcp 592 ------- 1 0.0 4.0 16 27
r 2.756144 2 3 tcp 592 ------- 1 0.0 4.0 11 21
- 2.756144 2 3 tcp 592 ------- 1 0.0 4.0 15 26
r 2.771931 2 3 tcp 592 ------- 1 0.0 4.0 12 22
- 2.771931 2 3 tcp 592 ------- 1 0.0 4.0 16 27
r 2.787717 2 3 tcp 592 ------- 1 0.0 4.0 13 23
r 2.856144 2 3 tcp 592 ------- 1 0.0 4.0 14 25
+ 2.856144 2 3 tcp 592 ------- 1 0.0 4.0 17 28
- 2.856144 2 3 tcp 592 ------- 1 0.0 4.0 17 28
+ 2.858512 2 3 tcp 592 ------- 1 0.0 4.0 18 29
r 2.871931 2 3 tcp 592 ------- 1 0.0 4.0 15 26
- 2.871931 2 3 tcp 592 ------- 1 0.0 4.0 18 29
r 2.887717 2 3 tcp 592 ------- 1 0.0 4.0 16 27
r 2.971931 2 3 tcp 592 ------- 1 0.0 4.0 17 28
r 2.987717 2 3 tcp 592 ------- 1 0.0 4.0 18 29
+ 3.055533 2 3 tcp 592 ------- 1 0.0 4.0 19 33
- 3.055533 2 3 tcp 592 ------- 1 0.0 4.0 19 33
+ 3.057901 2 3 tcp 592 ------- 1 0.0 4.0 20 34
+ 3.060269 2 3 tcp 592 ------- 1 0.0 4.0 21 35
- 3.07132 2 3 tcp 592 ------- 1 0.0 4.0 20 34
- 3.087107 2 3 tcp 592 ------- 1 0.0 4.0 21 35
+ 3.139747 2 3 tcp 592 ------- 1 0.0 4.0 22 37
- 3.139747 2 3 tcp 592 ------- 1 0.0 4.0 22 37
+ 3.142115 2 3 tcp 592 ------- 1 0.0 4.0 23 38
+ 3.144483 2 3 tcp 592 ------- 1 0.0 4.0 24 39
- 3.155533 2 3 tcp 592 ------- 1 0.0 4.0 23 38
r 3.17132 2 3 tcp 592 ------- 1 0.0 4.0 19 33
- 3.17132 2 3 tcp 592 ------- 1 0.0 4.0 24 39
+ 3.17132 2 3 tcp 592 ------- 1 0.0 4.0 25 40
+ 3.173688 2 3 tcp 592 ------- 1 0.0 4.0 26 41
+ 3.176056 2 3 tcp 592 ------- 1 0.0 4.0 27 42
r 3.187107 2 3 tcp 592 ------- 1 0.0 4.0 20 34
- 3.187107 2 3 tcp 592 ------- 1 0.0 4.0 25 40
r 3.202893 2 3 tcp 592 ------- 1 0.0 4.0 21 35
- 3.202893 2 3 tcp 592 ------- 1 0.0 4.0 26 41
- 3.21868 2 3 tcp 592 ------- 1 0.0 4.0 27 42
r 3.255533 2 3 tcp 592 ------- 1 0.0 4.0 22 37
r 3.27132 2 3 tcp 592 ------- 1 0.0 4.0 23 38
+ 3.27132 2 3 tcp 592 ------- 1 0.0 4.0 28 43
- 3.27132 2 3 tcp 592 ------- 1 0.0 4.0 28 43
+ 3.273688 2 3 tcp 592 ------- 1 0.0 4.0 29 44
+ 3.276056 2 3 tcp 592 ------- 1 0.0 4.0 30 45
r 3.287107 2 3 tcp 592 ------- 1 0.0 4.0 24 39
- 3.287107 2 3 tcp 592 ------- 1 0.0 4.0 29 44
r 3.302893 2 3 tcp 592 ------- 1 0.0 4.0 25 40
- 3.302893 2 3 tcp 592 ------- 1 0.0 4.0 30 45
+ 3.314 2 3 cbr 1000 ------- 2 1.0 5.0 4 47
r 3.31868 2 3 tcp 592 ------- 1 0.0 4.0 26 41
- 3.31868 2 3 cbr 1000 ------- 2 1.0 5.0 4 47
r 3.334467 2 3 tcp 592 ------- 1 0.0 4.0 27 42
r 3.387107 2 3 tcp 592 ------- 1 0.0 4.0 28 43
r 3.402893 2 3 tcp 592 ------- 1 0.0 4.0 29 44
r 3.41868 2 3 tcp 592 ------- 1 0.0 4.0 30 45
r 3.445347 2 3 cbr 1000 ------- 2 1.0 5.0 4 47
+ 3.470709 2 3 tcp 592 ------- 1 0.0 4.0 31 51
- 3.470709 2 3 tcp 592 ------- 1 0.0 4.0 31 51
+ 3.473077 2 3 tcp 592 ------- 1 0.0 4.0 32 52
+ 3.475445 2 3 tcp 592 ------- 1 0.0 4.0 33 53
- 3.486496 2 3 tcp 592 ------- 1 0.0 4.0 32 52
- 3.502283 2 3 tcp 592 ------- 1 0.0 4.0 33 53
+ 3.539136 2 3 tcp 592 ------- 1 0.0 4.0 34 56
- 3.539136 2 3 tcp 592 ------- 1 0.0 4.0 34 56
+ 3.541504 2 3 tcp 592 ------- 1 0.0 4.0 35 57
+ 3.543872 2 3 tcp 592 ------- 1 0.0 4.0 36 58
- 3.554923 2 3 tcp 592 ------- 1 0.0 4.0 35 57
- 3.570709 2 3 tcp 592 ------- 1 0.0 4.0 36 58
+ 3.570709 2 3 tcp 592 ------- 1 0.0 4.0 37 59
+ 3.573077 2 3 tcp 592 ------- 1 0.0 4.0 38 60
+ 3.575445 2 3 tcp 592 ------- 1 0.0 4.0 39 61
r 3.586496 2 3 tcp 592 ------- 1 0.0 4.0 31 51
- 3.586496 2 3 tcp 592 ------- 1 0.0 4.0 37 59
r 3.602283 2 3 tcp 592 ------- 1 0.0 4.0 32 52
- 3.602283 2 3 tcp 592 ------- 1 0.0 4.0 38 60
+ 3.602283 2 3 tcp 592 ------- 1 0.0 4.0 40 62
+ 3.604651 2 3 tcp 592 ------- 1 0.0 4.0 41 63
+ 3.607019 2 3 tcp 592 ------- 1 0.0 4.0 42 64
r 3.618069 2 3 tcp 592 ------- 1 0.0 4.0 33 53
- 3.618069 2 3 tcp 592 ------- 1 0.0 4.0 39 61
- 3.633856 2 3 tcp 592 ------- 1 0.0 4.0 40 62
- 3.649643 2 3 tcp 592 ------- 1 0.0 4.0 41 63
r 3.654923 2 3 tcp 592 ------- 1 0.0 4.0 34 56
- 3.665429 2 3 tcp 592 ------- 1 0.0 4.0 42 64
r 3.670709 2 3 tcp 592 ------- 1 0.0 4.0 35 57
+ 3.670709 2 3 tcp 592 ------- 1 0.0 4.0 43 65
+ 3.673077 2 3 tcp 592 ------- 1 0.0 4.0 44 66
+ 3.675445 2 3 tcp 592 ------- 1 0.0 4.0 45 67
- 3.681216 2 3 tcp 592 ------- 1 0.0 4.0 43 65
r 3.686496 2 3 tcp 592 ------- 1 0.0 4.0 36 58
- 3.697003 2 3 tcp 592 ------- 1 0.0 4.0 44 66
r 3.702283 2 3 tcp 592 ------- 1 0.0 4.0 37 59
+ 3.702283 2 3 tcp 592 ------- 1 0.0 4.0 46 69
+ 3.704651 2 3 tcp 592 ------- 1 0.0 4.0 47 70
+ 3.707019 2 3 tcp 592 ------- 1 0.0 4.0 48 71
- 3.712789 2 3 tcp 592 ------- 1 0.0 4.0 45 67
r 3.718069 2 3 tcp 592 ------- 1 0.0 4.0 38 60
- 3.728576 2 3 tcp 592 ------- 1 0.0 4.0 46 69
r 3.733856 2 3 tcp 592 ------- 1 0.0 4.0 39 61
- 3.744363 2 3 tcp 592 ------- 1 0.0 4.0 47 70
r 3.749643 2 3 tcp 592 ------- 1 0.0 4.0 40 62
- 3.760149 2 3 tcp 592 ------- 1 0.0 4.0 48 71
r 3.765429 2 3 tcp 592 ------- 1 0.0 4.0 41 63
r 3.781216 2 3 tcp 592 ------- 1 0.0 4.0 42 64
r 3.797003 2 3 tcp 592 ------- 1 0.0 4.0 43 65
r 3.812789 2 3 tcp 592 ------- 1 0.0 4.0 44 66
r 3.828576 2 3 tcp 592 ------- 1 0.0 4.0 45 67
r 3.844363 2 3 tcp 592 ------- 1 0.0 4.0 46 69
r 3.860149 2 3 tcp 592 ------- 1 0.0 4.0 47 70
r 3.875936 2 3 tcp 592 ------- 1 0.0 4.0 48 71
+ 3.885885 2 3 tcp 592 ------- 1 0.0 4.0 49 77
- 3.885885 2 3 tcp 592 ------- 1 0.0 4.0 49 77
+ 3.888253 2 3 tcp 592 ------- 1 0.0 4.0 50 78
+ 3.890621 2 3 tcp 592 ------- 1 0.0 4.0 51 79
- 3.901672 2 3 tcp 592 ------- 1 0.0 4.0 50 78
- 3.917459 2 3 tcp 592 ------- 1 0.0 4.0 51 79
+ 3.938525 2 3 tcp 592 ------- 1 0.0 4.0 52 82
- 3.938525 2 3 tcp 592 ------- 1 0.0 4.0 52 82
+ 3.940893 2 3 tcp 592 ------- 1 0.0 4.0 53 83
+ 3.943261 2 3 tcp 592 ------- 1 0.0 4.0 54 84
- 3.954312 2 3 tcp 592 ------- 1 0.0 4.0 53 83
- 3.970099 2 3 tcp 592 ------- 1 0.0 4.0 54 84
+ 3.970099 2 3 tcp 592 ------- 1 0.0 4.0 55 86
+ 3.972467 2 3 tcp 592 ------- 1 0.0 4.0 56 87
+ 3.974835 2 3 tcp 592 ------- 1 0.0 4.0 57 88
- 3.985885 2 3 tcp 592 ------- 1 0.0 4.0 55 86
r 4.001672 2 3 tcp 592 ------- 1 0.0 4.0 49 77
- 4.001672 2 3 tcp 592 ------- 1 0.0 4.0 56 87
+ 4.001672 2 3 tcp 592 ------- 1 0.0 4.0 58 89
+ 4.00404 2 3 tcp 592 ------- 1 0.0 4.0 59 90
+ 4.006408 2 3 tcp 592 ------- 1 0.0 4.0 60 91
r 4.017459 2 3 tcp 592 ------- 1 0.0 4.0 50 78
- 4.017459 2 3 tcp 592 ------- 1 0.0 4.0 57 88
r 4.033245 2 3 tcp 592 ------- 1 0.0 4.0 51 79
- 4.033245 2 3 tcp 592 ------- 1 0.0 4.0 58 89
+ 4.033245 2 3 tcp 592 ------- 1 0.0 4.0 61 92
+ 4.035613 2 3 tcp 592 ------- 1 0.0 4.0 62 93
+ 4.037981 2 3 tcp 592 ------- 1 0.0 4.0 63 94
- 4.049032 2 3 tcp 592 ------- 1 0.0 4.0 59 90
r 4.054312 2 3 tcp 592 ------- 1 0.0 4.0 52 82
+ 4.064819 2 3 tcp 592 ------- 1 0.0 4.0 64 95
- 4.064819 2 3 tcp 592 ------- 1 0.0 4.0 60 91
+ 4.067187 2 3 tcp 592 ------- 1 0.0 4.0 65 96
+ 4.069555 2 3 tcp 592 ------- 1 0.0 4.0 66 97
r 4.070099 2 3 tcp 592 ------- 1 0.0 4.0 53 83
- 4.080605 2 3 tcp 592 ------- 1 0.0 4.0 61 92
r 4.085885 2 3 tcp 592 ------- 1 0.0 4.0 54 84
+ 4.096392 2 3 tcp 592 ------- 1 0.0 4.0 67 98
- 4.096392 2 3 tcp 592 ------- 1 0.0 4.0 62 93
+ 4.09876 2 3 tcp 592 ------- 1 0.0 4.0 68 99
+ 4.101128 2 3 tcp 592 ------- 1 0.0 4.0 69 100
r 4.101672 2 3 tcp 592 ------- 1 0.0 4.0 55 86
- 4.112179 2 3 tcp 592 ------- 1 0.0 4.0 63 94
+ 4.114 2 3 cbr 1000 ------- 2 1.0 5.0 5 102
r 4.117459 2 3 tcp 592 ------- 1 0.0 4.0 56 87
+ 4.127965 2 3 tcp 592 ------- 1 0.0 4.0 70 103
- 4.127965 2 3 tcp 592 ------- 1 0.0 4.0 64 95
+ 4.130333 2 3 tcp 592 ------- 1 0.0 4.0 71 104
+ 4.132701 2 3 tcp 592 ------- 1 0.0 4.0 72 105
r 4.133245 2 3 tcp 592 ------- 1 0.0 4.0 57 88
- 4.143752 2 3 tcp 592 ------- 1 0.0 4.0 65 96
r 4.149032 2 3 tcp 592 ------- 1 0.0 4.0 58 89
+ 4.159539 2 3 tcp 592 ------- 1 0.0 4.0 73 107
- 4.159539 2 3 tcp 592 ------- 1 0.0 4.0 66 97
+ 4.161907 2 3 tcp 592 ------- 1 0.0 4.0 74 108
+ 4.164275 2 3 tcp 592 ------- 1 0.0 4.0 75 109
r 4.164819 2 3 tcp 592 ------- 1 0.0 4.0 59 90
- 4.175325 2 3 tcp 592 ------- 1 0.0 4.0 67 98
r 4.180605 2 3 tcp 592 ------- 1 0.0 4.0 60 91
- 4.191112 2 3 tcp 592 ------- 1 0.0 4.0 68 99
r 4.196392 2 3 tcp 592 ------- 1 0.0 4.0 61 92
- 4.206899 2 3 tcp 592 ------- 1 0.0 4.0 69 100
r 4.212179 2 3 tcp 592 ------- 1 0.0 4.0 62 93
- 4.222685 2 3 cbr 1000 ------- 2 1.0 5.0 5 102
r 4.227965 2 3 tcp 592 ------- 1 0.0 4.0 63 94
r 4.243752 2 3 tcp 592 ------- 1 0.0 4.0 64 95
- 4.249352 2 3 tcp 592 ------- 1 0.0 4.0 70 103
r 4.259539 2 3 tcp 592 ------- 1 0.0 4.0 65 96
- 4.265139 2 3 tcp 592 ------- 1 0.0 4.0 71 104
r 4.275325 2 3 tcp 592 ------- 1 0.0 4.0 66 97
- 4.280925 2 3 tcp 592 ------- 1 0.0 4.0 72 105
r 4.291112 2 3 tcp 592 ------- 1 0.0 4.0 67 98
- 4.296712 2 3 tcp 592 ------- 1 0.0 4.0 73 107
+ 4.301061 2 3 tcp 592 ------- 1 0.0 4.0 76 114
+ 4.303429 2 3 tcp 592 ------- 1 0.0 4.0 77 115
+ 4.305797 2 3 tcp 592 ------- 1 0.0 4.0 78 116
r 4.306899 2 3 tcp 592 ------- 1 0.0 4.0 68 99
- 4.312499 2 3 tcp 592 ------- 1 0.0 4.0 74 108
r 4.322685 2 3 tcp 592 ------- 1 0.0 4.0 69 100
- 4.328285 2 3 tcp 592 ------- 1 0.0 4.0 75 109
+ 4.337915 2 3 tcp 592 ------- 1 0.0 4.0 79 119
+ 4.340283 2 3 tcp 592 ------- 1 0.0 4.0 80 120
+ 4.342651 2 3 tcp 592 ------- 1 0.0 4.0 81 121
- 4.344072 2 3 tcp 592 ------- 1 0.0 4.0 76 114
r 4.349352 2 3 cbr 1000 ------- 2 1.0 5.0 5 102
- 4.359859 2 3 tcp 592 ------- 1 0.0 4.0 77 115
r 4.365139 2 3 tcp 592 ------- 1 0.0 4.0 70 103
+ 4.369488 2 3 tcp 592 ------- 1 0.0 4.0 82 123
+ 4.371856 2 3 tcp 592 ------- 1 0.0 4.0 83 124
+ 4.374224 2 3 tcp 592 ------- 1 0.0 4.0 84 125
- 4.375645 2 3 tcp 592 ------- 1 0.0 4.0 78 116
r 4.380925 2 3 tcp 592 ------- 1 0.0 4.0 71 104
- 4.391432 2 3 tcp 592 ------- 1 0.0 4.0 79 119
r 4.396712 2 3 tcp 592 ------- 1 0.0 4.0 72 105
+ 4.401061 2 3 tcp 592 ------- 1 0.0 4.0 85 127
+ 4.403429 2 3 tcp 592 ------- 1 0.0 4.0 86 128
+ 4.405797 2 3 tcp 592 ------- 1 0.0 4.0 87 129
- 4.407219 2 3 tcp 592 ------- 1 0.0 4.0 80 120
r 4.412499 2 3 tcp 592 ------- 1 0.0 4.0 73 107
- 4.423005 2 3 tcp 592 ------- 1 0.0 4.0 81 121
r 4.428285 2 3 tcp 592 ------- 1 0.0 4.0 74 108
+ 4.432635 2 3 tcp 592 ------- 1 0.0 4.0 88 130
+ 4.435003 2 3 tcp 592 ------- 1 0.0 4.0 89 131
+ 4.437371 2 3 tcp 592 ------- 1 0.0 4.0 90 132
- 4.438792 2 3 tcp 592 ------- 1 0.0 4.0 82 123
r 4.444072 2 3 tcp 592 ------- 1 0.0 4.0 75 109
- 4.454579 2 3 tcp 592 ------- 1 0.0 4.0 83 124
r 4.459859 2 3 tcp 592 ------- 1 0.0 4.0 76 114
+ 4.464208 2 3 tcp 592 ------- 1 0.0 4.0 91 134
+ 4.466576 2 3 tcp 592 ------- 1 0.0 4.0 92 135
+ 4.468944 2 3 tcp 592 ------- 1 0.0 4.0 93 136
- 4.470365 2 3 tcp 592 ------- 1 0.0 4.0 84 125
r 4.475645 2 3 tcp 592 ------- 1 0.0 4.0 77 115
- 4.486152 2 3 tcp 592 ------- 1 0.0 4.0 85 127
r 4.491432 2 3 tcp 592 ------- 1 0.0 4.0 78 116
+ 4.495781 2 3 tcp 592 ------- 1 0.0 4.0 94 138
+ 4.498149 2 3 tcp 592 ------- 1 0.0 4.0 95 139
+ 4.500517 2 3 tcp 592 ------- 1 0.0 4.0 96 140
- 4.501939 2 3 tcp 592 ------- 1 0.0 4.0 86 128
r 4.507219 2 3 tcp 592 ------- 1 0.0 4.0 79 119
- 4.517725 2 3 tcp 592 ------- 1 0.0 4.0 87 129
r 4.523005 2 3 tcp 592 ------- 1 0.0 4.0 80 120
+ 4.527355 2 3 tcp 592 ------- 1 0.0 4.0 97 142
+ 4.529723 2 3 tcp 592 ------- 1 0.0 4.0 98 143
+ 4.532091 2 3 tcp 592 ------- 1 0.0 4.0 99 144
- 4.533512 2 3 tcp 592 ------- 1 0.0 4.0 88 130
r 4.538792 2 3 tcp 592 ------- 1 0.0 4.0 81 121
- 4.549299 2 3 tcp 592 ------- 1 0.0 4.0 89 131
r 4.554579 2 3 tcp 592 ------- 1 0.0 4.0 82 123
+ 4.558928 2 3 tcp 592 ------- 1 0.0 4.0 100 146
+ 4.561296 2 3 tcp 592 ------- 1 0.0 4.0 101 147
+ 4.563664 2 3 tcp 592 ------- 1 0.0 4.0 102 148
- 4.565085 2 3 tcp 592 ------- 1 0.0 4.0 90 132
r 4.570365 2 3 tcp 592 ------- 1 0.0 4.0 83 124
- 4.580872 2 3 tcp 592 ------- 1 0.0 4.0 91 134
r 4.586152 2 3 tcp 592 ------- 1 0.0 4.0 84 125
+ 4.590501 2 3 tcp 592 ------- 1 0.0 4.0 103 150
+ 4.592869 2 3 tcp 592 ------- 1 0.0 4.0 104 151
+ 4.595237 2 3 tcp 592 ------- 1 0.0 4.0 105 152
- 4.596659 2 3 tcp 592 ------- 1 0.0 4.0 92 135
r 4.601939 2 3 tcp 592 ------- 1 0.0 4.0 85 127
- 4.612445 2 3 tcp 592 ------- 1 0.0 4.0 93 136
r 4.617725 2 3 tcp 592 ------- 1 0.0 4.0 86 128
- 4.628232 2 3 tcp 592 ------- 1 0.0 4.0 94 138
r 4.633512 2 3 tcp 592 ------- 1 0.0 4.0 87 129
- 4.644019 2 3 tcp 592 ------- 1 0.0 4.0 95 139
+ 4.648741 2 3 tcp 592 ------- 1 0.0 4.0 106 155
r 4.649299 2 3 tcp 592 ------- 1 0.0 4.0 88 130
+ 4.651109 2 3 tcp 592 ------- 1 0.0 4.0 107 156
+ 4.653477 2 3 tcp 592 ------- 1 0.0 4.0 108 157
- 4.659805 2 3 tcp 592 ------- 1 0.0 4.0 96 140
r 4.665085 2 3 tcp 592 ------- 1 0.0 4.0 89 131
- 4.675592 2 3 tcp 592 ------- 1 0.0 4.0 97 142
+ 4.680315 2 3 tcp 592 ------- 1 0.0 4.0 109 159
r 4.680872 2 3 tcp 592 ------- 1 0.0 4.0 90 132
+ 4.682683 2 3 tcp 592 ------- 1 0.0 4.0 110 160
+ 4.685051 2 3 tcp 592 ------- 1 0.0 4.0 111 161
- 4.691379 2 3 tcp 592 ------- 1 0.0 4.0 98 143
r 4.696659 2 3 tcp 592 ------- 1 0.0 4.0 91 134
- 4.707165 2 3 tcp 592 ------- 1 0.0 4.0 99 144
+ 4.711888 2 3 tcp 592 ------- 1 0.0 4.0 112 163
r 4.712445 2 3 tcp 592 ------- 1 0.0 4.0 92 135
+ 4.714256 2 3 tcp 592 ------- 1 0.0 4.0 113 164
+ 4.716624 2 3 tcp 592 ------- 1 0.0 4.0 114 165
- 4.722952 2 3 tcp 592 ------- 1 0.0 4.0 100 146
r 4.728232 2 3 tcp 592 ------- 1 0.0 4.0 93 136
- 4.738739 2 3 tcp 592 ------- 1 0.0 4.0 101 147
+ 4.743461 2 3 tcp 592 ------- 1 0.0 4.0 115 167
r 4.744019 2 3 tcp 592 ------- 1 0.0 4.0 94 138
+ 4.745829 2 3 tcp 592 ------- 1 0.0 4.0 116 168
+ 4.748197 2 3 tcp 592 ------- 1 0.0 4.0 117 169
- 4.754525 2 3 tcp 592 ------- 1 0.0 4.0 102 148
r 4.759805 2 3 tcp 592 ------- 1 0.0 4.0 95 139
- 4.770312 2 3 tcp 592 ------- 1 0.0 4.0 103 150
+ 4.775035 2 3 tcp 592 ------- 1 0.0 4.0 118 171
r 4.775592 2 3 tcp 592 ------- 1 0.0 4.0 96 140
+ 4.777403 2 3 tcp 592 ------- 1 0.0 4.0 119 172
+ 4.779771 2 3 tcp 592 ------- 1 0.0 4.0 120 173
- 4.786099 2 3 tcp 592 ------- 1 0.0 4.0 104 151
r 4.791379 2 3 tcp 592 ------- 1 0.0 4.0 97 142
- 4.801885 2 3 tcp 592 ------- 1 0.0 4.0 105 152
+ 4.806608 2 3 tcp 592 ------- 1 0.0 4.0 121 175
r 4.807165 2 3 tcp 592 ------- 1 0.0 4.0 98 143
+ 4.808976 2 3 tcp 592 ------- 1 0.0 4.0 122 176
+ 4.811344 2 3 tcp 592 ------- 1 0.0 4.0 123 177
- 4.817672 2 3 tcp 592 ------- 1 0.0 4.0 106 155
r 4.822952 2 3 tcp 592 ------- 1 0.0 4.0 99 144
- 4.833459 2 3 tcp 592 ------- 1 0.0 4.0 107 156
+ 4.838181 2 3 tcp 592 ------- 1 0.0 4.0 124 179
r 4.838739 2 3 tcp 592 ------- 1 0.0 4.0 100 146
+ 4.840549 2 3 tcp 592 ------- 1 0.0 4.0 125 180
+ 4.842917 2 3 tcp 592 ------- 1 0.0 4.0 126 181
- 4.849245 2 3 tcp 592 ------- 1 0.0 4.0 108 157
r 4.854525 2 3 tcp 592 ------- 1 0.0 4.0 101 147
- 4.865032 2 3 tcp 592 ------- 1 0.0 4.0 109 159
+ 4.869755 2 3 tcp 592 ------- 1 0.0 4.0 127 183
r 4.870312 2 3 tcp 592 ------- 1 0.0 4.0 102 148
+ 4.872123 2 3 tcp 592 ------- 1 0.0 4.0 128 184
+ 4.874491 2 3 tcp 592 ------- 1 0.0 4.0 129 185
- 4.880819 2 3 tcp 592 ------- 1 0.0 4.0 110 160
r 4.886099 2 3 tcp 592 ------- 1 0.0 4.0 103 150
- 4.896605 2 3 tcp 592 ------- 1 0.0 4.0 111 161
+ 4.901328 2 3 tcp 592 ------- 1 0.0 4.0 130 187
r 4.901885 2 3 tcp 592 ------- 1 0.0 4.0 104 151
+ 4.903696 2 3 tcp 592 ------- 1 0.0 4.0 131 188
+ 4.906064 2 3 tcp 592 ------- 1 0.0 4.0 132 189
- 4.912392 2 3 tcp 592 ------- 1 0.0 4.0 112 163
+ 4.914 2 3 cbr 1000 ------- 2 1.0 5.0 6 190
r 4.917672 2 3 tcp 592 ------- 1 0.0 4.0 105 152
- 4.928179 2 3 tcp 592 ------- 1 0.0 4.0 113 164
+ 4.932901 2 3 tcp 592 ------- 1 0.0 4.0 133 192
r 4.933459 2 3 tcp 592 ------- 1 0.0 4.0 106 155
+ 4.935269 2 3 tcp 592 ------- 1 0.0 4.0 134 193
+ 4.937637 2 3 tcp 592 ------- 1 0.0 4.0 135 194
- 4.943965 2 3 tcp 592 ------- 1 0.0 4.0 114 165
r 4.949245 2 3 tcp 592 ------- 1 0.0 4.0 107 156
- 4.959752 2 3 tcp 592 ------- 1 0.0 4.0 115 167
+ 4.964475 2 3 tcp 592 ------- 1 0.0 4.0 136 196
r 4.965032 2 3 tcp 592 ------- 1 0.0 4.0 108 157
+ 4.966843 2 3 tcp 592 ------- 1 0.0 4.0 137 197
+ 4.969211 2 3 tcp 592 ------- 1 0.0 4.0 138 198
- 4.975539 2 3 tcp 592 ------- 1 0.0 4.0 116 168
r 4.980819 2 3 tcp 592 ------- 1 0.0 4.0 109 159
- 4.991325 2 3 tcp 592 ------- 1 0.0 4.0 117 169
+ 4.996048 2 3 tcp 592 ------- 1 0.0 4.0 139 200
r 4.996605 2 3 tcp 592 ------- 1 0.0 4.0 110 160
+ 4.998416 2 3 tcp 592 ------- 1 0.0 4.0 140 201
+ 5.000784 2 3 tcp 592 ------- 1 0.0 4.0 141 202
- 5.007112 2 3 tcp 592 ------- 1 0.0 4.0 118 171
r 5.012392 2 3 tcp 592 ------- 1 0.0 4.0 111 161
- 5.022899 2 3 tcp 592 ------- 1 0.0 4.0 119 172
+ 5.027621 2 3 tcp 592 ------- 1 0.0 4.0 142 204
r 5.028179 2 3 tcp 592 ------- 1 0.0 4.0 112 163
+ 5.029989 2 3 tcp 592 ------- 1 0.0 4.0 143 205
+ 5.032357 2 3 tcp 592 ------- 1 0.0 4.0 144 206
- 5.038685 2 3 tcp 592 ------- 1 0.0 4.0 120 173
r 5.043965 2 3 tcp 592 ------- 1 0.0 4.0 113 164
- 5.054472 2 3 tcp 592 ------- 1 0.0 4.0 121 175
+ 5.059195 2 3 tcp 592 ------- 1 0.0 4.0 145 208
r 5.059752 2 3 tcp 592 ------- 1 0.0 4.0 114 165
+ 5.061563 2 3 tcp 592 ------- 1 0.0 4.0 146 209
+ 5.063931 2 3 tcp 592 ------- 1 0.0 4.0 147 210
- 5.070259 2 3 tcp 592 ------- 1 0.0 4.0 122 176
r 5.075539 2 3 tcp 592 ------- 1 0.0 4.0 115 167
- 5.086045 2 3 tcp 592 ------- 1 0.0 4.0 123 177
+ 5.090768 2 3 tcp 592 ------- 1 0.0 4.0 148 212
r 5.091325 2 3 tcp 592 ------- 1 0.0 4.0 116 168
+ 5.093136 2 3 tcp 592 ------- 1 0.0 4.0 149 213
+ 5.095504 2 3 tcp 592 ------- 1 0.0 4.0 150 214
- 5.101832 2 3 tcp 592 ------- 1 0.0 4.0 124 179
r 5.107112 2 3 tcp 592 ------- 1 0.0 4.0 117 169
- 5.117619 2 3 tcp 592 ------- 1 0.0 4.0 125 180
+ 5.122341 2 3 tcp 592 ------- 1 0.0 4.0 151 216
r 5.122899 2 3 tcp 592 ------- 1 0.0 4.0 118 171
+ 5.124709 2 3 tcp 592 ------- 1 0.0 4.0 152 217
+ 5.127077 2 3 tcp 592 ------- 1 0.0 4.0 153 218
- 5.133405 2 3 tcp 592 ------- 1 0.0 4.0 126 181
r 5.138685 2 3 tcp 592 ------- 1 0.0 4.0 119 172
- 5.149192 2 3 tcp 592 ------- 1 0.0 4.0 127 183
+ 5.153915 2 3 tcp 592 ------- 1 0.0 4.0 154 220
r 5.154472 2 3 tcp 592 ------- 1 0.0 4.0 120 173
+ 5.156283 2 3 tcp 592 ------- 1 0.0 4.0 155 221
+ 5.158651 2 3 tcp 592 ------- 1 0.0 4.0 156 222
- 5.164979 2 3 tcp 592 ------- 1 0.0 4.0 128 184
r 5.170259 2 3 tcp 592 ------- 1 0.0 4.0 121 175
- 5.180765 2 3 tcp 592 ------- 1 0.0 4.0 129 185
+ 5.185488 2 3 tcp 592 ------- 1 0.0 4.0 157 224
r 5.186045 2 3 tcp 592 ------- 1 0.0 4.0 122 176
+ 5.187856 2 3 tcp 592 ------- 1 0.0 4.0 158 225
+ 5.190224 2 3 tcp 592 ------- 1 0.0 4.0 159 226
- 5.196552 2 3 tcp 592 ------- 1 0.0 4.0 130 187
r 5.201832 2 3 tcp 592 ------- 1 0.0 4.0 123 177
- 5.212339 2 3 tcp 592 ------- 1 0.0 4.0 131 188
+ 5.217061 2 3 tcp 592 ------- 1 0.0 4.0 160 228
r 5.217619 2 3 tcp 592 ------- 1 0.0 4.0 124 179
+ 5.219429 2 3 tcp 592 ------- 1 0.0 4.0 161 229
+ 5.221797 2 3 tcp 592 ------- 1 0.0 4.0 162 230
- 5.228125 2 3 tcp 592 ------- 1 0.0 4.0 132 189
r 5.233405 2 3 tcp 592 ------- 1 0.0 4.0 125 180
- 5.243912 2 3 cbr 1000 ------- 2 1.0 5.0 6 190
+ 5.248635 2 3 tcp 592 ------- 1 0.0 4.0 163 232
r 5.249192 2 3 tcp 592 ------- 1 0.0 4.0 126 181
+ 5.251003 2 3 tcp 592 ------- 1 0.0 4.0 164 233
+ 5.253371 2 3 tcp 592 ------- 1 0.0 4.0 165 234
r 5.264979 2 3 tcp 592 ------- 1 0.0 4.0 127 183
- 5.270579 2 3 tcp 592 ------- 1 0.0 4.0 133 192
+ 5.280208 2 3 tcp 592 ------- 1 0.0 4.0 166 236
r 5.280765 2 3 tcp 592 ------- 1 0.0 4.0 128 184
+ 5.282576 2 3 tcp 592 ------- 1 0.0 4.0 167 237
+ 5.284944 2 3 tcp 592 ------- 1 0.0 4.0 168 238
- 5.286365 2 3 tcp 592 ------- 1 0.0 4.0 134 193
r 5.296552 2 3 tcp 592 ------- 1 0.0 4.0 129 185
- 5.302152 2 3 tcp 592 ------- 1 0.0 4.0 135 194
+ 5.311781 2 3 tcp 592 ------- 1 0.0 4.0 169 240
r 5.312339 2 3 tcp 592 ------- 1 0.0 4.0 130 187
+ 5.314149 2 3 tcp 592 ------- 1 0.0 4.0 170 241
+ 5.316517 2 3 tcp 592 ------- 1 0.0 4.0 171 242
- 5.317939 2 3 tcp 592 ------- 1 0.0 4.0 136 196
r 5.328125 2 3 tcp 592 ------- 1 0.0 4.0 131 188
- 5.333725 2 3 tcp 592 ------- 1 0.0 4.0 137 197
+ 5.343355 2 3 tcp 592 ------- 1 0.0 4.0 172 244
r 5.343912 2 3 tcp 592 ------- 1 0.0 4.0 132 189
+ 5.345723 2 3 tcp 592 ------- 1 0.0 4.0 173 245
+ 5.348091 2 3 tcp 592 ------- 1 0.0 4.0 174 246
- 5.349512 2 3 tcp 592 ------- 1 0.0 4.0 138 198
- 5.365299 2 3 tcp 592 ------- 1 0.0 4.0 139 200
r 5.370579 2 3 cbr 1000 ------- 2 1.0 5.0 6 190
+ 5.374928 2 3 tcp 592 ------- 1 0.0 4.0 175 248
+ 5.377296 2 3 tcp 592 ------- 1 0.0 4.0 176 249
+ 5.379664 2 3 tcp 592 ------- 1 0.0 4.0 177 250
- 5.381085 2 3 tcp 592 ------- 1 0.0 4.0 140 201
r 5.386365 2 3 tcp 592 ------- 1 0.0 4.0 133 192
- 5.396872 2 3 tcp 592 ------- 1 0.0 4.0 141 202
r 5.402152 2 3 tcp 592 ------- 1 0.0 4.0 134 193
+ 5.406501 2 3 tcp 592 ------- 1 0.0 4.0 178 252
+ 5.408869 2 3 tcp 592 ------- 1 0.0 4.0 179 253
+ 5.411237 2 3 tcp 592 ------- 1 0.0 4.0 180 254
- 5.412659 2 3 tcp 592 ------- 1 0.0 4.0 142 204
r 5.417939 2 3 tcp 592 ------- 1 0.0 4.0 135 194
- 5.428445 2 3 tcp 592 ------- 1 0.0 4.0 143 205
r 5.433725 2 3 tcp 592 ------- 1 0.0 4.0 136 196
+ 5.438075 2 3 tcp 592 ------- 1 0.0 4.0 181 256
+ 5.440443 2 3 tcp 592 ------- 1 0.0 4.0 182 257
+ 5.442811 2 3 tcp 592 ------- 1 0.0 4.0 183 258
- 5.444232 2 3 tcp 592 ------- 1 0.0 4.0 144 206
r 5.449512 2 3 tcp 592 ------- 1 0.0 4.0 137 197
- 5.460019 2 3 tcp 592 ------- 1 0.0 4.0 145 208
r 5.465299 2 3 tcp 592 ------- 1 0.0 4.0 138 198
+ 5.469648 2 3 tcp 592 ------- 1 0.0 4.0 184 259
+ 5.472016 2 3 tcp 592 ------- 1 0.0 4.0 185 260
+ 5.474384 2 3 tcp 592 ------- 1 0.0 4.0 186 261
- 5.475805 2 3 tcp 592 ------- 1 0.0 4.0 146 209
r 5.481085 2 3 tcp 592 ------- 1 0.0 4.0 139 200
- 5.491592 2 3 tcp 592 ------- 1 0.0 4.0 147 210
r 5.496872 2 3 tcp 592 ------- 1 0.0 4.0 140 201
+ 5.501221 2 3 tcp 592 ------- 1 0.0 4.0 187 263
+ 5.503589 2 3 tcp 592 ------- 1 0.0 4.0 188 264
+ 5.505957 2 3 tcp 592 ------- 1 0.0 4.0 189 265
- 5.507379 2 3 tcp 592 ------- 1 0.0 4.0 148 212
r 5.512659 2 3 tcp 592 ------- 1 0.0 4.0 141 202
- 5.523165 2 3 tcp 592 ------- 1 0.0 4.0 149 213
r 5.528445 2 3 tcp 592 ------- 1 0.0 4.0 142 204
+ 5.532795 2 3 tcp 592 ------- 1 0.0 4.0 190 267
+ 5.535163 2 3 tcp 592 ------- 1 0.0 4.0 191 268
+ 5.537531 2 3 tcp 592 ------- 1 0.0 4.0 192 269
- 5.538952 2 3 tcp 592 ------- 1 0.0 4.0 150 214
r 5.544232 2 3 tcp 592 ------- 1 0.0 4.0 143 205
- 5.554739 2 3 tcp 592 ------- 1 0.0 4.0 151 216
r 5.560019 2 3 tcp 592 ------- 1 0.0 4.0 144 206
+ 5.564368 2 3 tcp 592 ------- 1 0.0 4.0 193 271
+ 5.566736 2 3 tcp 592 ------- 1 0.0 4.0 194 272
+ 5.569104 2 3 tcp 592 ------- 1 0.0 4.0 195 273
- 5.570525 2 3 tcp 592 ------- 1 0.0 4.0 152 217
r 5.575805 2 3 tcp 592 ------- 1 0.0 4.0 145 208
- 5.586312 2 3 tcp 592 ------- 1 0.0 4.0 153 218
r 5.591592 2 3 tcp 592 ------- 1 0.0 4.0 146 209
+ 5.595941 2 3 tcp 592 ------- 1 0.0 4.0 196 275
+ 5.598309 2 3 tcp 592 ------- 1 0.0 4.0 197 276
+ 5.600677 2 3 tcp 592 ------- 1 0.0 4.0 198 277
- 5.602099 2 3 tcp 592 ------- 1 0.0 4.0 154 220
r 5.607379 2 3 tcp 592 ------- 1 0.0 4.0 147 210
- 5.617885 2 3 tcp 592 ------- 1 0.0 4.0 155 221
r 5.623165 2 3 tcp 592 ------- 1 0.0 4.0 148 212
+ 5.627515 2 3 tcp 592 ------- 1 0.0 4.0 199 279
+ 5.629883 2 3 tcp 592 ------- 1 0.0 4.0 200 280
+ 5.632251 2 3 tcp 592 ------- 1 0.0 4.0 201 281
- 5.633672 2 3 tcp 592 ------- 1 0.0 4.0 156 222
r 5.638952 2 3 tcp 592 ------- 1 0.0 4.0 149 213
- 5.649459 2 3 tcp 592 ------- 1 0.0 4.0 157 224
r 5.654739 2 3 tcp 592 ------- 1 0.0 4.0 150 214
- 5.665245 2 3 tcp 592 ------- 1 0.0 4.0 158 225
r 5.670525 2 3 tcp 592 ------- 1 0.0 4.0 151 216
- 5.681032 2 3 tcp 592 ------- 1 0.0 4.0 159 226
+ 5.685755 2 3 tcp 592 ------- 1 0.0 4.0 202 284
r 5.686312 2 3 tcp 592 ------- 1 0.0 4.0 152 217
+ 5.688123 2 3 tcp 592 ------- 1 0.0 4.0 203 285
+ 5.690491 2 3 tcp 592 ------- 1 0.0 4.0 204 286
- 5.696819 2 3 tcp 592 ------- 1 0.0 4.0 160 228
r 5.702099 2 3 tcp 592 ------- 1 0.0 4.0 153 218
- 5.712605 2 3 tcp 592 ------- 1 0.0 4.0 161 229
+ 5.714 2 3 cbr 1000 ------- 2 1.0 5.0 7 287
+ 5.717328 2 3 tcp 592 ------- 1 0.0 4.0 205 289
r 5.717885 2 3 tcp 592 ------- 1 0.0 4.0 154 220
+ 5.719696 2 3 tcp 592 ------- 1 0.0 4.0 206 290
+ 5.722064 2 3 tcp 592 ------- 1 0.0 4.0 207 291
- 5.728392 2 3 tcp 592 ------- 1 0.0 4.0 162 230
r 5.733672 2 3 tcp 592 ------- 1 0.0 4.0 155 221
- 5.744179 2 3 tcp 592 ------- 1 0.0 4.0 163 232
+ 5.748901 2 3 tcp 592 ------- 1 0.0 4.0 208 293
r 5.749459 2 3 tcp 592 ------- 1 0.0 4.0 156 222
+ 5.751269 2 3 tcp 592 ------- 1 0.0 4.0 209 294
+ 5.753637 2 3 tcp 592 ------- 1 0.0 4.0 210 295
- 5.759965 2 3 tcp 592 ------- 1 0.0 4.0 164 233
r 5.765245 2 3 tcp 592 ------- 1 0.0 4.0 157 224
- 5.775752 2 3 tcp 592 ------- 1 0.0 4.0 165 234
+ 5.780475 2 3 tcp 592 ------- 1 0.0 4.0 211 297
r 5.781032 2 3 tcp 592 ------- 1 0.0 4.0 158 225
+ 5.782843 2 3 tcp 592 ------- 1 0.0 4.0 212 298
+ 5.785211 2 3 tcp 592 ------- 1 0.0 4.0 213 299
- 5.791539 2 3 tcp 592 ------- 1 0.0 4.0 166 236
r 5.796819 2 3 tcp 592 ------- 1 0.0 4.0 159 226
- 5.807325 2 3 tcp 592 ------- 1 0.0 4.0 167 237
+ 5.812048 2 3 tcp 592 ------- 1 0.0 4.0 214 301
r 5.812605 2 3 tcp 592 ------- 1 0.0 4.0 160 228
+ 5.814416 2 3 tcp 592 ------- 1 0.0 4.0 215 302
+ 5.816784 2 3 tcp 592 ------- 1 0.0 4.0 216 303
d 5.816784 2 3 tcp 592 ------- 1 0.0 4.0 216 303
- 5.823112 2 3 tcp 592 ------- 1 0.0 4.0 168 238
r 5.828392 2 3 tcp 592 ------- 1 0.0 4.0 161 229
- 5.838899 2 3 tcp 592 ------- 1 0.0 4.0 169 240
+ 5.843621 2 3 tcp 592 ------- 1 0.0 4.0 217 305
r 5.844179 2 3 tcp 592 ------- 1 0.0 4.0 162 230
+ 5.845989 2 3 tcp 592 ------- 1 0.0 4.0 218 306
+ 5.848357 2 3 tcp 592 ------- 1 0.0 4.0 219 307
d 5.848357 2 3 tcp 592 ------- 1 0.0 4.0 219 307
- 5.854685 2 3 tcp 592 ------- 1 0.0 4.0 170 241
r 5.859965 2 3 tcp 592 ------- 1 0.0 4.0 163 232
- 5.870472 2 3 tcp 592 ------- 1 0.0 4.0 171 242
+ 5.875195 2 3 tcp 592 ------- 1 0.0 4.0 220 309
r 5.875752 2 3 tcp 592 ------- 1 0.0 4.0 164 233
+ 5.877563 2 3 tcp 592 ------- 1 0.0 4.0 221 310
+ 5.879931 2 3 tcp 592 ------- 1 0.0 4.0 222 311
d 5.879931 2 3 tcp 592 ------- 1 0.0 4.0 222 311
- 5.886259 2 3 tcp 592 ------- 1 0.0 4.0 172 244
r 5.891539 2 3 tcp 592 ------- 1 0.0 4.0 165 234
- 5.902045 2 3 tcp 592 ------- 1 0.0 4.0 173 245
+ 5.906768 2 3 tcp 592 ------- 1 0.0 4.0 223 313
r 5.907325 2 3 tcp 592 ------- 1 0.0 4.0 166 236
+ 5.909136 2 3 tcp 592 ------- 1 0.0 4.0 224 314
+ 5.911504 2 3 tcp 592 ------- 1 0.0 4.0 225 315
d 5.911504 2 3 tcp 592 ------- 1 0.0 4.0 225 315
- 5.917832 2 3 tcp 592 ------- 1 0.0 4.0 174 246
r 5.923112 2 3 tcp 592 ------- 1 0.0 4.0 167 237
- 5.933619 2 3 tcp 592 ------- 1 0.0 4.0 175 248
+ 5.938341 2 3 tcp 592 ------- 1 0.0 4.0 226 317
r 5.938899 2 3 tcp 592 ------- 1 0.0 4.0 168 238
+ 5.940709 2 3 tcp 592 ------- 1 0.0 4.0 227 318
+ 5.943077 2 3 tcp 592 ------- 1 0.0 4.0 228 319
d 5.943077 2 3 tcp 592 ------- 1 0.0 4.0 228 319
- 5.949405 2 3 tcp 592 ------- 1 0.0 4.0 176 249
r 5.954685 2 3 tcp 592 ------- 1 0.0 4.0 169 240
- 5.965192 2 3 tcp 592 ------- 1 0.0 4.0 177 250
+ 5.969915 2 3 tcp 592 ------- 1 0.0 4.0 229 321
r 5.970472 2 3 tcp 592 ------- 1 0.0 4.0 170 241
+ 5.972283 2 3 tcp 592 ------- 1 0.0 4.0 230 322
+ 5.974651 2 3 tcp 592 ------- 1 0.0 4.0 231 323
d 5.974651 2 3 tcp 592 ------- 1 0.0 4.0 231 323
- 5.980979 2 3 tcp 592 ------- 1 0.0 4.0 178 252
r 5.986259 2 3 tcp 592 ------- 1 0.0 4.0 171 242
- 5.996765 2 3 tcp 592 ------- 1 0.0 4.0 179 253
+ 6.001488 2 3 tcp 592 ------- 1 0.0 4.0 232 325
r 6.002045 2 3 tcp 592 ------- 1 0.0 4.0 172 244
+ 6.003856 2 3 tcp 592 ------- 1 0.0 4.0 233 326
+ 6.006224 2 3 tcp 592 ------- 1 0.0 4.0 234 327
d 6.006224 2 3 tcp 592 ------- 1 0.0 4.0 234 327
- 6.012552 2 3 tcp 592 ------- 1 0.0 4.0 180 254
r 6.017832 2 3 tcp 592 ------- 1 0.0 4.0 173 245
- 6.028339 2 3 tcp 592 ------- 1 0.0 4.0 181 256
+ 6.033061 2 3 tcp 592 ------- 1 0.0 4.0 235 329
r 6.033619 2 3 tcp 592 ------- 1 0.0 4.0 174 246
+ 6.035429 2 3 tcp 592 ------- 1 0.0 4.0 236 330
+ 6.037797 2 3 tcp 592 ------- 1 0.0 4.0 237 331
d 6.037797 2 3 tcp 592 ------- 1 0.0 4.0 237 331