+ 1.271235 3 2 ack 40 ------- 1 4.0 0.0 0 3
- 1.271235 3 2 ack 40 ------- 1 4.0 0.0 0 3
r 1.372301 3 2 ack 40 ------- 1 4.0 0.0 0 3
+ 1.686411 3 2 ack 40 ------- 1 4.0 0.0 2 6
- 1.686411 3 2 ack 40 ------- 1 4.0 0.0 2 6
r 1.787477 3 2 ack 40 ------- 1 4.0 0.0 2 6
+ 2.101587 3 2 ack 40 ------- 1 4.0 0.0 4 11
- 2.101587 3 2 ack 40 ------- 1 4.0 0.0 4 11
r 2.202653 3 2 ack 40 ------- 1 4.0 0.0 4 11
+ 2.217373 3 2 ack 40 ------- 1 4.0 0.0 5 12
- 2.217373 3 2 ack 40 ------- 1 4.0 0.0 5 12
r 2.31844 3 2 ack 40 ------- 1 4.0 0.0 5 12
+ 2.516763 3 2 ack 40 ------- 1 4.0 0.0 7 18
- 2.516763 3 2 ack 40 ------- 1 4.0 0.0 7 18
+ 2.616763 3 2 ack 40 ------- 1 4.0 0.0 9 20
- 2.616763 3 2 ack 40 ------- 1 4.0 0.0 9 20
r 2.617829 3 2 ack 40 ------- 1 4.0 0.0 7 18
r 2.717829 3 2 ack 40 ------- 1 4.0 0.0 9 20
+ 2.732549 3 2 ack 40 ------- 1 4.0 0.0 10 24
- 2.732549 3 2 ack 40 ------- 1 4.0 0.0 10 24
r 2.833616 3 2 ack 40 ------- 1 4.0 0.0 10 24
+ 2.931939 3 2 ack 40 ------- 1 4.0 0.0 12 30
- 2.931939 3 2 ack 40 ------- 1 4.0 0.0 12 30
+ 3.016152 3 2 ack 40 ------- 1 4.0 0.0 14 31
- 3.016152 3 2 ack 40 ------- 1 4.0 0.0 14 31
r 3.033005 3 2 ack 40 ------- 1 4.0 0.0 12 30
+ 3.047725 3 2 ack 40 ------- 1 4.0 0.0 16 32
- 3.047725 3 2 ack 40 ------- 1 4.0 0.0 16 32
r 3.117219 3 2 ack 40 ------- 1 4.0 0.0 14 31
+ 3.147725 3 2 ack 40 ------- 1 4.0 0.0 18 36
- 3.147725 3 2 ack 40 ------- 1 4.0 0.0 18 36
r 3.148792 3 2 ack 40 ------- 1 4.0 0.0 16 32
r 3.248792 3 2 ack 40 ------- 1 4.0 0.0 18 36
+ 3.347115 3 2 ack 40 ------- 1 4.0 0.0 20 46
- 3.347115 3 2 ack 40 ------- 1 4.0 0.0 20 46
+ 3.415541 3 2 ack 40 ------- 1 4.0 0.0 22 48
- 3.415541 3 2 ack 40 ------- 1 4.0 0.0 22 48
+ 3.447115 3 2 ack 40 ------- 1 4.0 0.0 24 49
- 3.447115 3 2 ack 40 ------- 1 4.0 0.0 24 49
r 3.448181 3 2 ack 40 ------- 1 4.0 0.0 20 46
+ 3.478688 3 2 ack 40 ------- 1 4.0 0.0 26 50
- 3.478688 3 2 ack 40 ------- 1 4.0 0.0 26 50
r 3.516608 3 2 ack 40 ------- 1 4.0 0.0 22 48
+ 3.547115 3 2 ack 40 ------- 1 4.0 0.0 28 54
- 3.547115 3 2 ack 40 ------- 1 4.0 0.0 28 54
r 3.548181 3 2 ack 40 ------- 1 4.0 0.0 24 49
+ 3.578688 3 2 ack 40 ------- 1 4.0 0.0 30 55
- 3.578688 3 2 ack 40 ------- 1 4.0 0.0 30 55
r 3.579755 3 2 ack 40 ------- 1 4.0 0.0 26 50
r 3.648181 3 2 ack 40 ------- 1 4.0 0.0 28 54
r 3.679755 3 2 ack 40 ------- 1 4.0 0.0 30 55
+ 3.762291 3 2 ack 40 ------- 1 4.0 0.0 32 68
- 3.762291 3 2 ack 40 ------- 1 4.0 0.0 32 68
+ 3.814931 3 2 ack 40 ------- 1 4.0 0.0 34 72
- 3.814931 3 2 ack 40 ------- 1 4.0 0.0 34 72
+ 3.846504 3 2 ack 40 ------- 1 4.0 0.0 36 73
- 3.846504 3 2 ack 40 ------- 1 4.0 0.0 36 73
r 3.863357 3 2 ack 40 ------- 1 4.0 0.0 32 68
+ 3.878077 3 2 ack 40 ------- 1 4.0 0.0 38 74
- 3.878077 3 2 ack 40 ------- 1 4.0 0.0 38 74
+ 3.909651 3 2 ack 40 ------- 1 4.0 0.0 40 75
- 3.909651 3 2 ack 40 ------- 1 4.0 0.0 40 75
r 3.915997 3 2 ack 40 ------- 1 4.0 0.0 34 72
+ 3.941224 3 2 ack 40 ------- 1 4.0 0.0 42 76
- 3.941224 3 2 ack 40 ------- 1 4.0 0.0 42 76
r 3.947571 3 2 ack 40 ------- 1 4.0 0.0 36 73
+ 3.972797 3 2 ack 40 ------- 1 4.0 0.0 44 80
- 3.972797 3 2 ack 40 ------- 1 4.0 0.0 44 80
r 3.979144 3 2 ack 40 ------- 1 4.0 0.0 38 74
+ 4.004371 3 2 ack 40 ------- 1 4.0 0.0 46 81
- 4.004371 3 2 ack 40 ------- 1 4.0 0.0 46 81
r 4.010717 3 2 ack 40 ------- 1 4.0 0.0 40 75
+ 4.035944 3 2 ack 40 ------- 1 4.0 0.0 48 85
- 4.035944 3 2 ack 40 ------- 1 4.0 0.0 48 85
r 4.042291 3 2 ack 40 ------- 1 4.0 0.0 42 76
r 4.073864 3 2 ack 40 ------- 1 4.0 0.0 44 80
r 4.105437 3 2 ack 40 ------- 1 4.0 0.0 46 81
r 4.137011 3 2 ack 40 ------- 1 4.0 0.0 48 85
+ 4.177467 3 2 ack 40 ------- 1 4.0 0.0 50 101
- 4.177467 3 2 ack 40 ------- 1 4.0 0.0 50 101
+ 4.21432 3 2 ack 40 ------- 1 4.0 0.0 52 106
- 4.21432 3 2 ack 40 ------- 1 4.0 0.0 52 106
+ 4.245893 3 2 ack 40 ------- 1 4.0 0.0 54 110
- 4.245893 3 2 ack 40 ------- 1 4.0 0.0 54 110
+ 4.277467 3 2 ack 40 ------- 1 4.0 0.0 56 111
- 4.277467 3 2 ack 40 ------- 1 4.0 0.0 56 111
r 4.278533 3 2 ack 40 ------- 1 4.0 0.0 50 101
+ 4.30904 3 2 ack 40 ------- 1 4.0 0.0 58 112
- 4.30904 3 2 ack 40 ------- 1 4.0 0.0 58 112
r 4.315387 3 2 ack 40 ------- 1 4.0 0.0 52 106
+ 4.340613 3 2 ack 40 ------- 1 4.0 0.0 60 113
- 4.340613 3 2 ack 40 ------- 1 4.0 0.0 60 113
r 4.34696 3 2 ack 40 ------- 1 4.0 0.0 54 110
+ 4.372187 3 2 ack 40 ------- 1 4.0 0.0 62 117
- 4.372187 3 2 ack 40 ------- 1 4.0 0.0 62 117
r 4.378533 3 2 ack 40 ------- 1 4.0 0.0 56 111
+ 4.40376 3 2 ack 40 ------- 1 4.0 0.0 64 118
- 4.40376 3 2 ack 40 ------- 1 4.0 0.0 64 118
r 4.410107 3 2 ack 40 ------- 1 4.0 0.0 58 112
+ 4.435333 3 2 ack 40 ------- 1 4.0 0.0 66 122
- 4.435333 3 2 ack 40 ------- 1 4.0 0.0 66 122
r 4.44168 3 2 ack 40 ------- 1 4.0 0.0 60 113
+ 4.466907 3 2 ack 40 ------- 1 4.0 0.0 68 126
- 4.466907 3 2 ack 40 ------- 1 4.0 0.0 68 126
r 4.473253 3 2 ack 40 ------- 1 4.0 0.0 62 117
r 4.504827 3 2 ack 40 ------- 1 4.0 0.0 64 118
+ 4.525147 3 2 ack 40 ------- 1 4.0 0.0 70 133
- 4.525147 3 2 ack 40 ------- 1 4.0 0.0 70 133
r 4.5364 3 2 ack 40 ------- 1 4.0 0.0 66 122
+ 4.55672 3 2 ack 40 ------- 1 4.0 0.0 72 137
- 4.55672 3 2 ack 40 ------- 1 4.0 0.0 72 137
r 4.567973 3 2 ack 40 ------- 1 4.0 0.0 68 126
+ 4.588293 3 2 ack 40 ------- 1 4.0 0.0 74 141
- 4.588293 3 2 ack 40 ------- 1 4.0 0.0 74 141
+ 4.619867 3 2 ack 40 ------- 1 4.0 0.0 76 145
- 4.619867 3 2 ack 40 ------- 1 4.0 0.0 76 145
r 4.626213 3 2 ack 40 ------- 1 4.0 0.0 70 133
+ 4.65144 3 2 ack 40 ------- 1 4.0 0.0 78 149
- 4.65144 3 2 ack 40 ------- 1 4.0 0.0 78 149
r 4.657787 3 2 ack 40 ------- 1 4.0 0.0 72 137
+ 4.683013 3 2 ack 40 ------- 1 4.0 0.0 80 153
- 4.683013 3 2 ack 40 ------- 1 4.0 0.0 80 153
r 4.68936 3 2 ack 40 ------- 1 4.0 0.0 74 141
+ 4.714587 3 2 ack 40 ------- 1 4.0 0.0 82 154
- 4.714587 3 2 ack 40 ------- 1 4.0 0.0 82 154
r 4.720933 3 2 ack 40 ------- 1 4.0 0.0 76 145
+ 4.74616 3 2 ack 40 ------- 1 4.0 0.0 84 158
- 4.74616 3 2 ack 40 ------- 1 4.0 0.0 84 158
r 4.752507 3 2 ack 40 ------- 1 4.0 0.0 78 149
+ 4.777733 3 2 ack 40 ------- 1 4.0 0.0 86 162
- 4.777733 3 2 ack 40 ------- 1 4.0 0.0 86 162
r 4.78408 3 2 ack 40 ------- 1 4.0 0.0 80 153
+ 4.809307 3 2 ack 40 ------- 1 4.0 0.0 88 166
- 4.809307 3 2 ack 40 ------- 1 4.0 0.0 88 166
r 4.815653 3 2 ack 40 ------- 1 4.0 0.0 82 154
+ 4.84088 3 2 ack 40 ------- 1 4.0 0.0 90 170
- 4.84088 3 2 ack 40 ------- 1 4.0 0.0 90 170
r 4.847227 3 2 ack 40 ------- 1 4.0 0.0 84 158
+ 4.872453 3 2 ack 40 ------- 1 4.0 0.0 92 174
- 4.872453 3 2 ack 40 ------- 1 4.0 0.0 92 174
r 4.8788 3 2 ack 40 ------- 1 4.0 0.0 86 162
+ 4.904027 3 2 ack 40 ------- 1 4.0 0.0 94 178
- 4.904027 3 2 ack 40 ------- 1 4.0 0.0 94 178
r 4.910373 3 2 ack 40 ------- 1 4.0 0.0 88 166
+ 4.9356 3 2 ack 40 ------- 1 4.0 0.0 96 182
- 4.9356 3 2 ack 40 ------- 1 4.0 0.0 96 182
r 4.941947 3 2 ack 40 ------- 1 4.0 0.0 90 170
+ 4.967173 3 2 ack 40 ------- 1 4.0 0.0 98 186
- 4.967173 3 2 ack 40 ------- 1 4.0 0.0 98 186
r 4.97352 3 2 ack 40 ------- 1 4.0 0.0 92 174
+ 4.998747 3 2 ack 40 ------- 1 4.0 0.0 100 191
- 4.998747 3 2 ack 40 ------- 1 4.0 0.0 100 191
r 5.005093 3 2 ack 40 ------- 1 4.0 0.0 94 178
+ 5.03032 3 2 ack 40 ------- 1 4.0 0.0 102 195
- 5.03032 3 2 ack 40 ------- 1 4.0 0.0 102 195
r 5.036667 3 2 ack 40 ------- 1 4.0 0.0 96 182
+ 5.061893 3 2 ack 40 ------- 1 4.0 0.0 104 199
- 5.061893 3 2 ack 40 ------- 1 4.0 0.0 104 199
r 5.06824 3 2 ack 40 ------- 1 4.0 0.0 98 186
+ 5.093467 3 2 ack 40 ------- 1 4.0 0.0 106 203
- 5.093467 3 2 ack 40 ------- 1 4.0 0.0 106 203
r 5.099813 3 2 ack 40 ------- 1 4.0 0.0 100 191
+ 5.12504 3 2 ack 40 ------- 1 4.0 0.0 108 207
- 5.12504 3 2 ack 40 ------- 1 4.0 0.0 108 207
r 5.131387 3 2 ack 40 ------- 1 4.0 0.0 102 195
+ 5.156613 3 2 ack 40 ------- 1 4.0 0.0 110 211
- 5.156613 3 2 ack 40 ------- 1 4.0 0.0 110 211
r 5.16296 3 2 ack 40 ------- 1 4.0 0.0 104 199
+ 5.188187 3 2 ack 40 ------- 1 4.0 0.0 112 215
- 5.188187 3 2 ack 40 ------- 1 4.0 0.0 112 215
r 5.194533 3 2 ack 40 ------- 1 4.0 0.0 106 203
+ 5.21976 3 2 ack 40 ------- 1 4.0 0.0 114 219
- 5.21976 3 2 ack 40 ------- 1 4.0 0.0 114 219
r 5.226107 3 2 ack 40 ------- 1 4.0 0.0 108 207
+ 5.251333 3 2 ack 40 ------- 1 4.0 0.0 116 223
- 5.251333 3 2 ack 40 ------- 1 4.0 0.0 116 223
r 5.25768 3 2 ack 40 ------- 1 4.0 0.0 110 211
+ 5.282907 3 2 ack 40 ------- 1 4.0 0.0 118 227
- 5.282907 3 2 ack 40 ------- 1 4.0 0.0 118 227
r 5.289253 3 2 ack 40 ------- 1 4.0 0.0 112 215
+ 5.31448 3 2 ack 40 ------- 1 4.0 0.0 120 231
- 5.31448 3 2 ack 40 ------- 1 4.0 0.0 120 231
r 5.320827 3 2 ack 40 ------- 1 4.0 0.0 114 219
+ 5.346053 3 2 ack 40 ------- 1 4.0 0.0 122 235
- 5.346053 3 2 ack 40 ------- 1 4.0 0.0 122 235
r 5.3524 3 2 ack 40 ------- 1 4.0 0.0 116 223
+ 5.377627 3 2 ack 40 ------- 1 4.0 0.0 124 239
- 5.377627 3 2 ack 40 ------- 1 4.0 0.0 124 239
r 5.383973 3 2 ack 40 ------- 1 4.0 0.0 118 227
+ 5.4092 3 2 ack 40 ------- 1 4.0 0.0 126 243
- 5.4092 3 2 ack 40 ------- 1 4.0 0.0 126 243
r 5.415547 3 2 ack 40 ------- 1 4.0 0.0 120 231
+ 5.440773 3 2 ack 40 ------- 1 4.0 0.0 128 247
- 5.440773 3 2 ack 40 ------- 1 4.0 0.0 128 247
r 5.44712 3 2 ack 40 ------- 1 4.0 0.0 122 235
+ 5.472347 3 2 ack 40 ------- 1 4.0 0.0 130 251
- 5.472347 3 2 ack 40 ------- 1 4.0 0.0 130 251
r 5.478693 3 2 ack 40 ------- 1 4.0 0.0 124 239
+ 5.50392 3 2 ack 40 ------- 1 4.0 0.0 132 255
- 5.50392 3 2 ack 40 ------- 1 4.0 0.0 132 255
r 5.510267 3 2 ack 40 ------- 1 4.0 0.0 126 243
r 5.54184 3 2 ack 40 ------- 1 4.0 0.0 128 247
+ 5.56216 3 2 ack 40 ------- 1 4.0 0.0 134 262
- 5.56216 3 2 ack 40 ------- 1 4.0 0.0 134 262
r 5.573413 3 2 ack 40 ------- 1 4.0 0.0 130 251
+ 5.593733 3 2 ack 40 ------- 1 4.0 0.0 136 266
- 5.593733 3 2 ack 40 ------- 1 4.0 0.0 136 266
r 5.604987 3 2 ack 40 ------- 1 4.0 0.0 132 255
+ 5.625307 3 2 ack 40 ------- 1 4.0 0.0 138 270
- 5.625307 3 2 ack 40 ------- 1 4.0 0.0 138 270
+ 5.65688 3 2 ack 40 ------- 1 4.0 0.0 140 274
- 5.65688 3 2 ack 40 ------- 1 4.0 0.0 140 274
r 5.663227 3 2 ack 40 ------- 1 4.0 0.0 134 262
+ 5.688453 3 2 ack 40 ------- 1 4.0 0.0 142 278
- 5.688453 3 2 ack 40 ------- 1 4.0 0.0 142 278
r 5.6948 3 2 ack 40 ------- 1 4.0 0.0 136 266
+ 5.720027 3 2 ack 40 ------- 1 4.0 0.0 144 282
- 5.720027 3 2 ack 40 ------- 1 4.0 0.0 144 282
r 5.726373 3 2 ack 40 ------- 1 4.0 0.0 138 270
+ 5.7516 3 2 ack 40 ------- 1 4.0 0.0 146 283
- 5.7516 3 2 ack 40 ------- 1 4.0 0.0 146 283
r 5.757947 3 2 ack 40 ------- 1 4.0 0.0 140 274
+ 5.783173 3 2 ack 40 ------- 1 4.0 0.0 148 288
- 5.783173 3 2 ack 40 ------- 1 4.0 0.0 148 288
r 5.78952 3 2 ack 40 ------- 1 4.0 0.0 142 278
+ 5.814747 3 2 ack 40 ------- 1 4.0 0.0 150 292
- 5.814747 3 2 ack 40 ------- 1 4.0 0.0 150 292
r 5.821093 3 2 ack 40 ------- 1 4.0 0.0 144 282
+ 5.84632 3 2 ack 40 ------- 1 4.0 0.0 152 296
- 5.84632 3 2 ack 40 ------- 1 4.0 0.0 152 296
r 5.852667 3 2 ack 40 ------- 1 4.0 0.0 146 283
+ 5.877893 3 2 ack 40 ------- 1 4.0 0.0 154 300
- 5.877893 3 2 ack 40 ------- 1 4.0 0.0 154 300
r 5.88424 3 2 ack 40 ------- 1 4.0 0.0 148 288
+ 5.909467 3 2 ack 40 ------- 1 4.0 0.0 156 304
- 5.909467 3 2 ack 40 ------- 1 4.0 0.0 156 304
r 5.915813 3 2 ack 40 ------- 1 4.0 0.0 150 292
+ 5.94104 3 2 ack 40 ------- 1 4.0 0.0 158 308
- 5.94104 3 2 ack 40 ------- 1 4.0 0.0 158 308
r 5.947387 3 2 ack 40 ------- 1 4.0 0.0 152 296
+ 5.972613 3 2 ack 40 ------- 1 4.0 0.0 160 312
- 5.972613 3 2 ack 40 ------- 1 4.0 0.0 160 312
r 5.97896 3 2 ack 40 ------- 1 4.0 0.0 154 300
+ 6.004187 3 2 ack 40 ------- 1 4.0 0.0 162 316
- 6.004187 3 2 ack 40 ------- 1 4.0 0.0 162 316
r 6.010533 3 2 ack 40 ------- 1 4.0 0.0 156 304
+ 6.03576 3 2 ack 40 ------- 1 4.0 0.0 164 320
- 6.03576 3 2 ack 40 ------- 1 4.0 0.0 164 320
r 6.042107 3 2 ack 40 ------- 1 4.0 0.0 158 308
+ 6.067333 3 2 ack 40 ------- 1 4.0 0.0 166 324
- 6.067333 3 2 ack 40 ------- 1 4.0 0.0 166 324
r 6.07368 3 2 ack 40 ------- 1 4.0 0.0 160 312
+ 6.098907 3 2 ack 40 ------- 1 4.0 0.0 168 328
- 6.098907 3 2 ack 40 ------- 1 4.0 0.0 168 328
r 6.105253 3 2 ack 40 ------- 1 4.0 0.0 162 316
+ 6.13048 3 2 ack 40 ------- 1 4.0 0.0 170 332
- 6.13048 3 2 ack 40 ------- 1 4.0 0.0 170 332
r 6.136827 3 2 ack 40 ------- 1 4.0 0.0 164 320
+ 6.162053 3 2 ack 40 ------- 1 4.0 0.0 172 336
- 6.162053 3 2 ack 40 ------- 1 4.0 0.0 172 336
r 6.1684 3 2 ack 40 ------- 1 4.0 0.0 166 324
+ 6.193627 3 2 ack 40 ------- 1 4.0 0.0 174 340
- 6.193627 3 2 ack 40 ------- 1 4.0 0.0 174 340
r 6.199973 3 2 ack 40 ------- 1 4.0 0.0 168 328
+ 6.2252 3 2 ack 40 ------- 1 4.0 0.0 176 344
- 6.2252 3 2 ack 40 ------- 1 4.0 0.0 176 344
r 6.231547 3 2 ack 40 ------- 1 4.0 0.0 170 332
+ 6.256773 3 2 ack 40 ------- 1 4.0 0.0 178 348
- 6.256773 3 2 ack 40 ------- 1 4.0 0.0 178 348
r 6.26312 3 2 ack 40 ------- 1 4.0 0.0 172 336
+ 6.288347 3 2 ack 40 ------- 1 4.0 0.0 180 352
- 6.288347 3 2 ack 40 ------- 1 4.0 0.0 180 352
r 6.294693 3 2 ack 40 ------- 1 4.0 0.0 174 340
+ 6.31992 3 2 ack 40 ------- 1 4.0 0.0 182 356
- 6.31992 3 2 ack 40 ------- 1 4.0 0.0 182 356
r 6.326267 3 2 ack 40 ------- 1 4.0 0.0 176 344
+ 6.351493 3 2 ack 40 ------- 1 4.0 0.0 184 360
- 6.351493 3 2 ack 40 ------- 1 4.0 0.0 184 360
r 6.35784 3 2 ack 40 ------- 1 4.0 0.0 178 348
+ 6.383067 3 2 ack 40 ------- 1 4.0 0.0 186 364
- 6.383067 3 2 ack 40 ------- 1 4.0 0.0 186 364
r 6.389413 3 2 ack 40 ------- 1 4.0 0.0 180 352
+ 6.41464 3 2 ack 40 ------- 1 4.0 0.0 188 368
- 6.41464 3 2 ack 40 ------- 1 4.0 0.0 188 368
r 6.420987 3 2 ack 40 ------- 1 4.0 0.0 182 356
+ 6.446213 3 2 ack 40 ------- 1 4.0 0.0 190 372
- 6.446213 3 2 ack 40 ------- 1 4.0 0.0 190 372
r 6.45256 3 2 ack 40 ------- 1 4.0 0.0 184 360
+ 6.477787 3 2 ack 40 ------- 1 4.0 0.0 192 376
- 6.477787 3 2 ack 40 ------- 1 4.0 0.0 192 376
r 6.484133 3 2 ack 40 ------- 1 4.0 0.0 186 364
+ 6.50936 3 2 ack 40 ------- 1 4.0 0.0 194 380
- 6.50936 3 2 ack 40 ------- 1 4.0 0.0 194 380
r 6.515707 3 2 ack 40 ------- 1 4.0 0.0 188 368
+ 6.540933 3 2 ack 40 ------- 1 4.0 0.0 196 384
- 6.540933 3 2 ack 40 ------- 1 4.0 0.0 196 384
r 6.54728 3 2 ack 40 ------- 1 4.0 0.0 190 372
+ 6.572507 3 2 ack 40 ------- 1 4.0 0.0 198 388
- 6.572507 3 2 ack 40 ------- 1 4.0 0.0 198 388
r 6.578853 3 2 ack 40 ------- 1 4.0 0.0 192 376
+ 6.60408 3 2 ack 40 ------- 1 4.0 0.0 200 393
- 6.60408 3 2 ack 40 ------- 1 4.0 0.0 200 393
r 6.610427 3 2 ack 40 ------- 1 4.0 0.0 194 380
+ 6.635653 3 2 ack 40 ------- 1 4.0 0.0 202 397
- 6.635653 3 2 ack 40 ------- 1 4.0 0.0 202 397
r 6.642 3 2 ack 40 ------- 1 4.0 0.0 196 384
+ 6.667227 3 2 ack 40 ------- 1 4.0 0.0 204 401
- 6.667227 3 2 ack 40 ------- 1 4.0 0.0 204 401
r 6.673573 3 2 ack 40 ------- 1 4.0 0.0 198 388
r 6.705147 3 2 ack 40 ------- 1 4.0 0.0 200 393
+ 6.725467 3 2 ack 40 ------- 1 4.0 0.0 206 408
- 6.725467 3 2 ack 40 ------- 1 4.0 0.0 206 408
r 6.73672 3 2 ack 40 ------- 1 4.0 0.0 202 397
+ 6.75704 3 2 ack 40 ------- 1 4.0 0.0 208 412
- 6.75704 3 2 ack 40 ------- 1 4.0 0.0 208 412
r 6.768293 3 2 ack 40 ------- 1 4.0 0.0 204 401
+ 6.788613 3 2 ack 40 ------- 1 4.0 0.0 210 416
- 6.788613 3 2 ack 40 ------- 1 4.0 0.0 210 416
+ 6.820187 3 2 ack 40 ------- 1 4.0 0.0 212 420
- 6.820187 3 2 ack 40 ------- 1 4.0 0.0 212 420
r 6.826533 3 2 ack 40 ------- 1 4.0 0.0 206 408
+ 6.85176 3 2 ack 40 ------- 1 4.0 0.0 214 424
- 6.85176 3 2 ack 40 ------- 1 4.0 0.0 214 424
r 6.858107 3 2 ack 40 ------- 1 4.0 0.0 208 412
+ 6.883333 3 2 ack 40 ------- 1 4.0 0.0 215 428
- 6.883333 3 2 ack 40 ------- 1 4.0 0.0 215 428
r 6.88968 3 2 ack 40 ------- 1 4.0 0.0 210 416
+ 6.89912 3 2 ack 40 ------- 1 4.0 0.0 215 429
- 6.89912 3 2 ack 40 ------- 1 4.0 0.0 215 429
+ 6.914907 3 2 ack 40 ------- 1 4.0 0.0 215 430
- 6.914907 3 2 ack 40 ------- 1 4.0 0.0 215 430
r 6.921253 3 2 ack 40 ------- 1 4.0 0.0 212 420
+ 6.930693 3 2 ack 40 ------- 1 4.0 0.0 215 434
- 6.930693 3 2 ack 40 ------- 1 4.0 0.0 215 434
+ 6.94648 3 2 ack 40 ------- 1 4.0 0.0 215 435
- 6.94648 3 2 ack 40 ------- 1 4.0 0.0 215 435
r 6.952827 3 2 ack 40 ------- 1 4.0 0.0 214 424
+ 6.962267 3 2 ack 40 ------- 1 4.0 0.0 215 439
- 6.962267 3 2 ack 40 ------- 1 4.0 0.0 215 439
+ 6.978053 3 2 ack 40 ------- 1 4.0 0.0 215 440
- 6.978053 3 2 ack 40 ------- 1 4.0 0.0 215 440
r 6.9844 3 2 ack 40 ------- 1 4.0 0.0 215 428
+ 6.99384 3 2 ack 40 ------- 1 4.0 0.0 215 444
- 6.99384 3 2 ack 40 ------- 1 4.0 0.0 215 444
r 7.000187 3 2 ack 40 ------- 1 4.0 0.0 215 429
+ 7.009627 3 2 ack 40 ------- 1 4.0 0.0 215 445
- 7.009627 3 2 ack 40 ------- 1 4.0 0.0 215 445
r 7.015973 3 2 ack 40 ------- 1 4.0 0.0 215 430
+ 7.025413 3 2 ack 40 ------- 1 4.0 0.0 215 449
- 7.025413 3 2 ack 40 ------- 1 4.0 0.0 215 449
r 7.03176 3 2 ack 40 ------- 1 4.0 0.0 215 434
+ 7.0412 3 2 ack 40 ------- 1 4.0 0.0 215 450
- 7.0412 3 2 ack 40 ------- 1 4.0 0.0 215 450
r 7.047547 3 2 ack 40 ------- 1 4.0 0.0 215 435
+ 7.056987 3 2 ack 40 ------- 1 4.0 0.0 215 454
- 7.056987 3 2 ack 40 ------- 1 4.0 0.0 215 454
r 7.063333 3 2 ack 40 ------- 1 4.0 0.0 215 439
+ 7.072773 3 2 ack 40 ------- 1 4.0 0.0 215 455
- 7.072773 3 2 ack 40 ------- 1 4.0 0.0 215 455
r 7.07912 3 2 ack 40 ------- 1 4.0 0.0 215 440
+ 7.08856 3 2 ack 40 ------- 1 4.0 0.0 215 458
- 7.08856 3 2 ack 40 ------- 1 4.0 0.0 215 458
r 7.094907 3 2 ack 40 ------- 1 4.0 0.0 215 444
+ 7.104347 3 2 ack 40 ------- 1 4.0 0.0 215 460
- 7.104347 3 2 ack 40 ------- 1 4.0 0.0 215 460
r 7.110693 3 2 ack 40 ------- 1 4.0 0.0 215 445
+ 7.120133 3 2 ack 40 ------- 1 4.0 0.0 215 462
- 7.120133 3 2 ack 40 ------- 1 4.0 0.0 215 462
r 7.12648 3 2 ack 40 ------- 1 4.0 0.0 215 449
+ 7.13592 3 2 ack 40 ------- 1 4.0 0.0 215 464
- 7.13592 3 2 ack 40 ------- 1 4.0 0.0 215 464
r 7.142267 3 2 ack 40 ------- 1 4.0 0.0 215 450
+ 7.151707 3 2 ack 40 ------- 1 4.0 0.0 215 465
- 7.151707 3 2 ack 40 ------- 1 4.0 0.0 215 465
r 7.158053 3 2 ack 40 ------- 1 4.0 0.0 215 454
+ 7.167493 3 2 ack 40 ------- 1 4.0 0.0 215 466
- 7.167493 3 2 ack 40 ------- 1 4.0 0.0 215 466
r 7.17384 3 2 ack 40 ------- 1 4.0 0.0 215 455
+ 7.18328 3 2 ack 40 ------- 1 4.0 0.0 215 467
- 7.18328 3 2 ack 40 ------- 1 4.0 0.0 215 467
r 7.189627 3 2 ack 40 ------- 1 4.0 0.0 215 458
+ 7.199067 3 2 ack 40 ------- 1 4.0 0.0 215 468
- 7.199067 3 2 ack 40 ------- 1 4.0 0.0 215 468
r 7.205413 3 2 ack 40 ------- 1 4.0 0.0 215 460
+ 7.214853 3 2 ack 40 ------- 1 4.0 0.0 215 469
- 7.214853 3 2 ack 40 ------- 1 4.0 0.0 215 469
r 7.2212 3 2 ack 40 ------- 1 4.0 0.0 215 462
+ 7.23064 3 2 ack 40 ------- 1 4.0 0.0 215 470
- 7.23064 3 2 ack 40 ------- 1 4.0 0.0 215 470
r 7.236987 3 2 ack 40 ------- 1 4.0 0.0 215 464
+ 7.246427 3 2 ack 40 ------- 1 4.0 0.0 215 471
- 7.246427 3 2 ack 40 ------- 1 4.0 0.0 215 471
r 7.252773 3 2 ack 40 ------- 1 4.0 0.0 215 465
+ 7.262213 3 2 ack 40 ------- 1 4.0 0.0 215 472
- 7.262213 3 2 ack 40 ------- 1 4.0 0.0 215 472
r 7.26856 3 2 ack 40 ------- 1 4.0 0.0 215 466
+ 7.278 3 2 ack 40 ------- 1 4.0 0.0 215 473
- 7.278 3 2 ack 40 ------- 1 4.0 0.0 215 473
r 7.284347 3 2 ack 40 ------- 1 4.0 0.0 215 467
+ 7.293787 3 2 ack 40 ------- 1 4.0 0.0 215 474
- 7.293787 3 2 ack 40 ------- 1 4.0 0.0 215 474
r 7.300133 3 2 ack 40 ------- 1 4.0 0.0 215 468
+ 7.309573 3 2 ack 40 ------- 1 4.0 0.0 215 475
- 7.309573 3 2 ack 40 ------- 1 4.0 0.0 215 475
r 7.31592 3 2 ack 40 ------- 1 4.0 0.0 215 469
+ 7.32536 3 2 ack 40 ------- 1 4.0 0.0 215 476
- 7.32536 3 2 ack 40 ------- 1 4.0 0.0 215 476
r 7.331707 3 2 ack 40 ------- 1 4.0 0.0 215 470
+ 7.341147 3 2 ack 40 ------- 1 4.0 0.0 215 477
- 7.341147 3 2 ack 40 ------- 1 4.0 0.0 215 477
r 7.347493 3 2 ack 40 ------- 1 4.0 0.0 215 471
+ 7.356933 3 2 ack 40 ------- 1 4.0 0.0 215 478
- 7.356933 3 2 ack 40 ------- 1 4.0 0.0 215 478
r 7.36328 3 2 ack 40 ------- 1 4.0 0.0 215 472
+ 7.37272 3 2 ack 40 ------- 1 4.0 0.0 215 479
- 7.37272 3 2 ack 40 ------- 1 4.0 0.0 215 479
r 7.379067 3 2 ack 40 ------- 1 4.0 0.0 215 473
+ 7.388507 3 2 ack 40 ------- 1 4.0 0.0 215 481
- 7.388507 3 2 ack 40 ------- 1 4.0 0.0 215 481
r 7.394853 3 2 ack 40 ------- 1 4.0 0.0 215 474
+ 7.404293 3 2 ack 40 ------- 1 4.0 0.0 215 482
- 7.404293 3 2 ack 40 ------- 1 4.0 0.0 215 482
r 7.41064 3 2 ack 40 ------- 1 4.0 0.0 215 475
+ 7.42008 3 2 ack 40 ------- 1 4.0 0.0 215 483
- 7.42008 3 2 ack 40 ------- 1 4.0 0.0 215 483
r 7.426427 3 2 ack 40 ------- 1 4.0 0.0 215 476
+ 7.435867 3 2 ack 40 ------- 1 4.0 0.0 215 484
- 7.435867 3 2 ack 40 ------- 1 4.0 0.0 215 484
r 7.442213 3 2 ack 40 ------- 1 4.0 0.0 215 477
+ 7.451653 3 2 ack 40 ------- 1 4.0 0.0 215 485
- 7.451653 3 2 ack 40 ------- 1 4.0 0.0 215 485
r 7.458 3 2 ack 40 ------- 1 4.0 0.0 215 478
+ 7.46744 3 2 ack 40 ------- 1 4.0 0.0 215 486
- 7.46744 3 2 ack 40 ------- 1 4.0 0.0 215 486
r 7.473787 3 2 ack 40 ------- 1 4.0 0.0 215 479
+ 7.483227 3 2 ack 40 ------- 1 4.0 0.0 215 487
- 7.483227 3 2 ack 40 ------- 1 4.0 0.0 215 487
r 7.489573 3 2 ack 40 ------- 1 4.0 0.0 215 481
+ 7.499013 3 2 ack 40 ------- 1 4.0 0.0 215 488
- 7.499013 3 2 ack 40 ------- 1 4.0 0.0 215 488
r 7.50536 3 2 ack 40 ------- 1 4.0 0.0 215 482
+ 7.5148 3 2 ack 40 ------- 1 4.0 0.0 215 489
- 7.5148 3 2 ack 40 ------- 1 4.0 0.0 215 489
r 7.521147 3 2 ack 40 ------- 1 4.0 0.0 215 483
+ 7.530587 3 2 ack 40 ------- 1 4.0 0.0 215 490
- 7.530587 3 2 ack 40 ------- 1 4.0 0.0 215 490
r 7.536933 3 2 ack 40 ------- 1 4.0 0.0 215 484
+ 7.546373 3 2 ack 40 ------- 1 4.0 0.0 215 491
- 7.546373 3 2 ack 40 ------- 1 4.0 0.0 215 491
r 7.55272 3 2 ack 40 ------- 1 4.0 0.0 215 485
r 7.568507 3 2 ack 40 ------- 1 4.0 0.0 215 486
r 7.584293 3 2 ack 40 ------- 1 4.0 0.0 215 487
+ 7.588827 3 2 ack 40 ------- 1 4.0 0.0 215 492
- 7.588827 3 2 ack 40 ------- 1 4.0 0.0 215 492
r 7.60008 3 2 ack 40 ------- 1 4.0 0.0 215 488
+ 7.604613 3 2 ack 40 ------- 1 4.0 0.0 215 493
- 7.604613 3 2 ack 40 ------- 1 4.0 0.0 215 493
r 7.615867 3 2 ack 40 ------- 1 4.0 0.0 215 489
+ 7.6204 3 2 ack 40 ------- 1 4.0 0.0 215 494
- 7.6204 3 2 ack 40 ------- 1 4.0 0.0 215 494
r 7.631653 3 2 ack 40 ------- 1 4.0 0.0 215 490
+ 7.636187 3 2 ack 40 ------- 1 4.0 0.0 215 495
- 7.636187 3 2 ack 40 ------- 1 4.0 0.0 215 495
r 7.64744 3 2 ack 40 ------- 1 4.0 0.0 215 491
+ 7.651973 3 2 ack 40 ------- 1 4.0 0.0 215 496
- 7.651973 3 2 ack 40 ------- 1 4.0 0.0 215 496
+ 7.66776 3 2 ack 40 ------- 1 4.0 0.0 215 497
- 7.66776 3 2 ack 40 ------- 1 4.0 0.0 215 497
+ 7.683547 3 2 ack 40 ------- 1 4.0 0.0 215 498
- 7.683547 3 2 ack 40 ------- 1 4.0 0.0 215 498
r 7.689893 3 2 ack 40 ------- 1 4.0 0.0 215 492
+ 7.699333 3 2 ack 40 ------- 1 4.0 0.0 215 499
- 7.699333 3 2 ack 40 ------- 1 4.0 0.0 215 499
r 7.70568 3 2 ack 40 ------- 1 4.0 0.0 215 493
+ 7.71512 3 2 ack 40 ------- 1 4.0 0.0 215 500
- 7.71512 3 2 ack 40 ------- 1 4.0 0.0 215 500
r 7.721467 3 2 ack 40 ------- 1 4.0 0.0 215 494
+ 7.730907 3 2 ack 40 ------- 1 4.0 0.0 215 501
- 7.730907 3 2 ack 40 ------- 1 4.0 0.0 215 501
r 7.737253 3 2 ack 40 ------- 1 4.0 0.0 215 495
+ 7.746693 3 2 ack 40 ------- 1 4.0 0.0 215 502
- 7.746693 3 2 ack 40 ------- 1 4.0 0.0 215 502
r 7.75304 3 2 ack 40 ------- 1 4.0 0.0 215 496
+ 7.76248 3 2 ack 40 ------- 1 4.0 0.0 215 503
- 7.76248 3 2 ack 40 ------- 1 4.0 0.0 215 503
r 7.768827 3 2 ack 40 ------- 1 4.0 0.0 215 497
+ 7.778267 3 2 ack 40 ------- 1 4.0 0.0 215 504
- 7.778267 3 2 ack 40 ------- 1 4.0 0.0 215 504
r 7.784613 3 2 ack 40 ------- 1 4.0 0.0 215 498
+ 7.794053 3 2 ack 40 ------- 1 4.0 0.0 215 505
- 7.794053 3 2 ack 40 ------- 1 4.0 0.0 215 505
r 7.8004 3 2 ack 40 ------- 1 4.0 0.0 215 499
+ 7.80984 3 2 ack 40 ------- 1 4.0 0.0 215 506
- 7.80984 3 2 ack 40 ------- 1 4.0 0.0 215 506
r 7.816187 3 2 ack 40 ------- 1 4.0 0.0 215 500
+ 7.825627 3 2 ack 40 ------- 1 4.0 0.0 215 507
- 7.825627 3 2 ack 40 ------- 1 4.0 0.0 215 507
r 7.831973 3 2 ack 40 ------- 1 4.0 0.0 215 501
+ 7.841413 3 2 ack 40 ------- 1 4.0 0.0 215 508
- 7.841413 3 2 ack 40 ------- 1 4.0 0.0 215 508
r 7.84776 3 2 ack 40 ------- 1 4.0 0.0 215 502
+ 7.8572 3 2 ack 40 ------- 1 4.0 0.0 215 509
- 7.8572 3 2 ack 40 ------- 1 4.0 0.0 215 509
r 7.863547 3 2 ack 40 ------- 1 4.0 0.0 215 503
+ 7.872987 3 2 ack 40 ------- 1 4.0 0.0 215 510
- 7.872987 3 2 ack 40 ------- 1 4.0 0.0 215 510
r 7.879333 3 2 ack 40 ------- 1 4.0 0.0 215 504
+ 7.888773 3 2 ack 40 ------- 1 4.0 0.0 215 511
- 7.888773 3 2 ack 40 ------- 1 4.0 0.0 215 511
r 7.89512 3 2 ack 40 ------- 1 4.0 0.0 215 505
+ 7.90456 3 2 ack 40 ------- 1 4.0 0.0 215 512
- 7.90456 3 2 ack 40 ------- 1 4.0 0.0 215 512
r 7.910907 3 2 ack 40 ------- 1 4.0 0.0 215 506
+ 7.920347 3 2 ack 40 ------- 1 4.0 0.0 215 513
- 7.920347 3 2 ack 40 ------- 1 4.0 0.0 215 513
r 7.926693 3 2 ack 40 ------- 1 4.0 0.0 215 507
+ 7.936133 3 2 ack 40 ------- 1 4.0 0.0 215 514
- 7.936133 3 2 ack 40 ------- 1 4.0 0.0 215 514
r 7.94248 3 2 ack 40 ------- 1 4.0 0.0 215 508
+ 7.95192 3 2 ack 40 ------- 1 4.0 0.0 215 515
- 7.95192 3 2 ack 40 ------- 1 4.0 0.0 215 515
r 7.958267 3 2 ack 40 ------- 1 4.0 0.0 215 509
+ 7.967707 3 2 ack 40 ------- 1 4.0 0.0 215 516
- 7.967707 3 2 ack 40 ------- 1 4.0 0.0 215 516
r 7.974053 3 2 ack 40 ------- 1 4.0 0.0 215 510
+ 7.983493 3 2 ack 40 ------- 1 4.0 0.0 215 517
- 7.983493 3 2 ack 40 ------- 1 4.0 0.0 215 517
r 7.98984 3 2 ack 40 ------- 1 4.0 0.0 215 511
+ 7.99928 3 2 ack 40 ------- 1 4.0 0.0 215 518
- 7.99928 3 2 ack 40 ------- 1 4.0 0.0 215 518
r 8.005627 3 2 ack 40 ------- 1 4.0 0.0 215 512
+ 8.015067 3 2 ack 40 ------- 1 4.0 0.0 215 519
- 8.015067 3 2 ack 40 ------- 1 4.0 0.0 215 519
r 8.021413 3 2 ack 40 ------- 1 4.0 0.0 215 513
+ 8.030853 3 2 ack 40 ------- 1 4.0 0.0 215 520
- 8.030853 3 2 ack 40 ------- 1 4.0 0.0 215 520
r 8.0372 3 2 ack 40 ------- 1 4.0 0.0 215 514
+ 8.04664 3 2 ack 40 ------- 1 4.0 0.0 215 522
- 8.04664 3 2 ack 40 ------- 1 4.0 0.0 215 522
r 8.052987 3 2 ack 40 ------- 1 4.0 0.0 215 515
+ 8.062427 3 2 ack 40 ------- 1 4.0 0.0 215 524
- 8.062427 3 2 ack 40 ------- 1 4.0 0.0 215 524
r 8.068773 3 2 ack 40 ------- 1 4.0 0.0 215 516
+ 8.078213 3 2 ack 40 ------- 1 4.0 0.0 215 526
- 8.078213 3 2 ack 40 ------- 1 4.0 0.0 215 526
r 8.08456 3 2 ack 40 ------- 1 4.0 0.0 215 517
+ 8.094 3 2 ack 40 ------- 1 4.0 0.0 215 528
- 8.094 3 2 ack 40 ------- 1 4.0 0.0 215 528
r 8.100347 3 2 ack 40 ------- 1 4.0 0.0 215 518
+ 8.109787 3 2 ack 40 ------- 1 4.0 0.0 218 530
- 8.109787 3 2 ack 40 ------- 1 4.0 0.0 218 530
r 8.116133 3 2 ack 40 ------- 1 4.0 0.0 215 519
r 8.13192 3 2 ack 40 ------- 1 4.0 0.0 215 520
r 8.147707 3 2 ack 40 ------- 1 4.0 0.0 215 522
r 8.163493 3 2 ack 40 ------- 1 4.0 0.0 215 524
r 8.17928 3 2 ack 40 ------- 1 4.0 0.0 215 526
r 8.195067 3 2 ack 40 ------- 1 4.0 0.0 215 528
r 8.210853 3 2 ack 40 ------- 1 4.0 0.0 218 530
+ 8.240803 3 2 ack 40 ------- 1 4.0 0.0 218 541
- 8.240803 3 2 ack 40 ------- 1 4.0 0.0 218 541
+ 8.256589 3 2 ack 40 ------- 1 4.0 0.0 218 543
- 8.256589 3 2 ack 40 ------- 1 4.0 0.0 218 543
+ 8.272376 3 2 ack 40 ------- 1 4.0 0.0 218 545
- 8.272376 3 2 ack 40 ------- 1 4.0 0.0 218 545
+ 8.288163 3 2 ack 40 ------- 1 4.0 0.0 218 547
- 8.288163 3 2 ack 40 ------- 1 4.0 0.0 218 547
+ 8.303949 3 2 ack 40 ------- 1 4.0 0.0 218 550
- 8.303949 3 2 ack 40 ------- 1 4.0 0.0 218 550
+ 8.319736 3 2 ack 40 ------- 1 4.0 0.0 218 551
- 8.319736 3 2 ack 40 ------- 1 4.0 0.0 218 551
+ 8.335523 3 2 ack 40 ------- 1 4.0 0.0 218 552
- 8.335523 3 2 ack 40 ------- 1 4.0 0.0 218 552
r 8.341869 3 2 ack 40 ------- 1 4.0 0.0 218 541
+ 8.351309 3 2 ack 40 ------- 1 4.0 0.0 218 553
- 8.351309 3 2 ack 40 ------- 1 4.0 0.0 218 553
r 8.357656 3 2 ack 40 ------- 1 4.0 0.0 218 543
+ 8.367096 3 2 ack 40 ------- 1 4.0 0.0 218 554
- 8.367096 3 2 ack 40 ------- 1 4.0 0.0 218 554
r 8.373443 3 2 ack 40 ------- 1 4.0 0.0 218 545
+ 8.382883 3 2 ack 40 ------- 1 4.0 0.0 218 555
- 8.382883 3 2 ack 40 ------- 1 4.0 0.0 218 555
r 8.389229 3 2 ack 40 ------- 1 4.0 0.0 218 547
r 8.405016 3 2 ack 40 ------- 1 4.0 0.0 218 550
r 8.420803 3 2 ack 40 ------- 1 4.0 0.0 218 551
+ 8.425336 3 2 ack 40 ------- 1 4.0 0.0 218 556
- 8.425336 3 2 ack 40 ------- 1 4.0 0.0 218 556
r 8.436589 3 2 ack 40 ------- 1 4.0 0.0 218 552
+ 8.441123 3 2 ack 40 ------- 1 4.0 0.0 218 558
- 8.441123 3 2 ack 40 ------- 1 4.0 0.0 218 558
r 8.452376 3 2 ack 40 ------- 1 4.0 0.0 218 553
+ 8.456909 3 2 ack 40 ------- 1 4.0 0.0 218 560
- 8.456909 3 2 ack 40 ------- 1 4.0 0.0 218 560
r 8.468163 3 2 ack 40 ------- 1 4.0 0.0 218 554
+ 8.472696 3 2 ack 40 ------- 1 4.0 0.0 218 562
- 8.472696 3 2 ack 40 ------- 1 4.0 0.0 218 562
r 8.483949 3 2 ack 40 ------- 1 4.0 0.0 218 555
+ 8.488483 3 2 ack 40 ------- 1 4.0 0.0 218 564
- 8.488483 3 2 ack 40 ------- 1 4.0 0.0 218 564
+ 8.504269 3 2 ack 40 ------- 1 4.0 0.0 218 566
- 8.504269 3 2 ack 40 ------- 1 4.0 0.0 218 566
+ 8.520056 3 2 ack 40 ------- 1 4.0 0.0 218 568
- 8.520056 3 2 ack 40 ------- 1 4.0 0.0 218 568
r 8.526403 3 2 ack 40 ------- 1 4.0 0.0 218 556
+ 8.535843 3 2 ack 40 ------- 1 4.0 0.0 221 570
- 8.535843 3 2 ack 40 ------- 1 4.0 0.0 221 570
r 8.542189 3 2 ack 40 ------- 1 4.0 0.0 218 558
+ 8.551629 3 2 ack 40 ------- 1 4.0 0.0 221 572
- 8.551629 3 2 ack 40 ------- 1 4.0 0.0 221 572
r 8.557976 3 2 ack 40 ------- 1 4.0 0.0 218 560
r 8.573763 3 2 ack 40 ------- 1 4.0 0.0 218 562
r 8.589549 3 2 ack 40 ------- 1 4.0 0.0 218 564
r 8.605336 3 2 ack 40 ------- 1 4.0 0.0 218 566
r 8.621123 3 2 ack 40 ------- 1 4.0 0.0 218 568
r 8.636909 3 2 ack 40 ------- 1 4.0 0.0 221 570
+ 8.640192 3 2 ack 40 ------- 1 4.0 0.0 221 577
- 8.640192 3 2 ack 40 ------- 1 4.0 0.0 221 577
r 8.652696 3 2 ack 40 ------- 1 4.0 0.0 221 572
+ 8.655979 3 2 ack 40 ------- 1 4.0 0.0 221 579
- 8.655979 3 2 ack 40 ------- 1 4.0 0.0 221 579
+ 8.671765 3 2 ack 40 ------- 1 4.0 0.0 221 581
- 8.671765 3 2 ack 40 ------- 1 4.0 0.0 221 581
+ 8.687552 3 2 ack 40 ------- 1 4.0 0.0 221 583
- 8.687552 3 2 ack 40 ------- 1 4.0 0.0 221 583
+ 8.703339 3 2 ack 40 ------- 1 4.0 0.0 221 585
- 8.703339 3 2 ack 40 ------- 1 4.0 0.0 221 585
+ 8.719125 3 2 ack 40 ------- 1 4.0 0.0 221 587
- 8.719125 3 2 ack 40 ------- 1 4.0 0.0 221 587
+ 8.734912 3 2 ack 40 ------- 1 4.0 0.0 221 590
- 8.734912 3 2 ack 40 ------- 1 4.0 0.0 221 590
r 8.741259 3 2 ack 40 ------- 1 4.0 0.0 221 577
+ 8.750699 3 2 ack 40 ------- 1 4.0 0.0 221 592
- 8.750699 3 2 ack 40 ------- 1 4.0 0.0 221 592
r 8.757045 3 2 ack 40 ------- 1 4.0 0.0 221 579
+ 8.766485 3 2 ack 40 ------- 1 4.0 0.0 221 593