+ 1 0 2 tcp 40 ------- 1 0.0 4.0 0 2
- 1 0 2 tcp 40 ------- 1 0.0 4.0 0 2
r 1.01016 0 2 tcp 40 ------- 1 0.0 4.0 0 2
+ 1.382461 0 2 tcp 592 ------- 1 0.0 4.0 1 4
- 1.382461 0 2 tcp 592 ------- 1 0.0 4.0 1 4
+ 1.382461 0 2 tcp 592 ------- 1 0.0 4.0 2 5
- 1.384829 0 2 tcp 592 ------- 1 0.0 4.0 2 5
r 1.394829 0 2 tcp 592 ------- 1 0.0 4.0 1 4
r 1.397197 0 2 tcp 592 ------- 1 0.0 4.0 2 5
+ 1.797637 0 2 tcp 592 ------- 1 0.0 4.0 3 8
- 1.797637 0 2 tcp 592 ------- 1 0.0 4.0 3 8
+ 1.797637 0 2 tcp 592 ------- 1 0.0 4.0 4 9
+ 1.797637 0 2 tcp 592 ------- 1 0.0 4.0 5 10
- 1.800005 0 2 tcp 592 ------- 1 0.0 4.0 4 9
- 1.802373 0 2 tcp 592 ------- 1 0.0 4.0 5 10
r 1.810005 0 2 tcp 592 ------- 1 0.0 4.0 3 8
r 1.812373 0 2 tcp 592 ------- 1 0.0 4.0 4 9
r 1.814741 0 2 tcp 592 ------- 1 0.0 4.0 5 10
+ 2.212813 0 2 tcp 592 ------- 1 0.0 4.0 6 13
- 2.212813 0 2 tcp 592 ------- 1 0.0 4.0 6 13
+ 2.212813 0 2 tcp 592 ------- 1 0.0 4.0 7 14
+ 2.212813 0 2 tcp 592 ------- 1 0.0 4.0 8 15
- 2.215181 0 2 tcp 592 ------- 1 0.0 4.0 7 14
- 2.217549 0 2 tcp 592 ------- 1 0.0 4.0 8 15
r 2.225181 0 2 tcp 592 ------- 1 0.0 4.0 6 13
r 2.227549 0 2 tcp 592 ------- 1 0.0 4.0 7 14
r 2.229917 0 2 tcp 592 ------- 1 0.0 4.0 8 15
+ 2.3286 0 2 tcp 592 ------- 1 0.0 4.0 9 16
- 2.3286 0 2 tcp 592 ------- 1 0.0 4.0 9 16
+ 2.3286 0 2 tcp 592 ------- 1 0.0 4.0 10 17
- 2.330968 0 2 tcp 592 ------- 1 0.0 4.0 10 17
r 2.340968 0 2 tcp 592 ------- 1 0.0 4.0 9 16
r 2.343336 0 2 tcp 592 ------- 1 0.0 4.0 10 17
+ 2.627989 0 2 tcp 592 ------- 1 0.0 4.0 11 21
- 2.627989 0 2 tcp 592 ------- 1 0.0 4.0 11 21
+ 2.627989 0 2 tcp 592 ------- 1 0.0 4.0 12 22
+ 2.627989 0 2 tcp 592 ------- 1 0.0 4.0 13 23
- 2.630357 0 2 tcp 592 ------- 1 0.0 4.0 12 22
- 2.632725 0 2 tcp 592 ------- 1 0.0 4.0 13 23
r 2.640357 0 2 tcp 592 ------- 1 0.0 4.0 11 21
r 2.642725 0 2 tcp 592 ------- 1 0.0 4.0 12 22
r 2.645093 0 2 tcp 592 ------- 1 0.0 4.0 13 23
+ 2.727989 0 2 tcp 592 ------- 1 0.0 4.0 14 25
- 2.727989 0 2 tcp 592 ------- 1 0.0 4.0 14 25
+ 2.727989 0 2 tcp 592 ------- 1 0.0 4.0 15 26
+ 2.727989 0 2 tcp 592 ------- 1 0.0 4.0 16 27
- 2.730357 0 2 tcp 592 ------- 1 0.0 4.0 15 26
- 2.732725 0 2 tcp 592 ------- 1 0.0 4.0 16 27
r 2.740357 0 2 tcp 592 ------- 1 0.0 4.0 14 25
r 2.742725 0 2 tcp 592 ------- 1 0.0 4.0 15 26
r 2.745093 0 2 tcp 592 ------- 1 0.0 4.0 16 27
+ 2.843776 0 2 tcp 592 ------- 1 0.0 4.0 17 28
- 2.843776 0 2 tcp 592 ------- 1 0.0 4.0 17 28
+ 2.843776 0 2 tcp 592 ------- 1 0.0 4.0 18 29
- 2.846144 0 2 tcp 592 ------- 1 0.0 4.0 18 29
r 2.856144 0 2 tcp 592 ------- 1 0.0 4.0 17 28
r 2.858512 0 2 tcp 592 ------- 1 0.0 4.0 18 29
+ 3.043165 0 2 tcp 592 ------- 1 0.0 4.0 19 33
- 3.043165 0 2 tcp 592 ------- 1 0.0 4.0 19 33
+ 3.043165 0 2 tcp 592 ------- 1 0.0 4.0 20 34
+ 3.043165 0 2 tcp 592 ------- 1 0.0 4.0 21 35
- 3.045533 0 2 tcp 592 ------- 1 0.0 4.0 20 34
- 3.047901 0 2 tcp 592 ------- 1 0.0 4.0 21 35
r 3.055533 0 2 tcp 592 ------- 1 0.0 4.0 19 33
r 3.057901 0 2 tcp 592 ------- 1 0.0 4.0 20 34
r 3.060269 0 2 tcp 592 ------- 1 0.0 4.0 21 35
+ 3.127379 0 2 tcp 592 ------- 1 0.0 4.0 22 37
- 3.127379 0 2 tcp 592 ------- 1 0.0 4.0 22 37
+ 3.127379 0 2 tcp 592 ------- 1 0.0 4.0 23 38
+ 3.127379 0 2 tcp 592 ------- 1 0.0 4.0 24 39
- 3.129747 0 2 tcp 592 ------- 1 0.0 4.0 23 38
- 3.132115 0 2 tcp 592 ------- 1 0.0 4.0 24 39
r 3.139747 0 2 tcp 592 ------- 1 0.0 4.0 22 37
r 3.142115 0 2 tcp 592 ------- 1 0.0 4.0 23 38
r 3.144483 0 2 tcp 592 ------- 1 0.0 4.0 24 39
+ 3.158952 0 2 tcp 592 ------- 1 0.0 4.0 25 40
- 3.158952 0 2 tcp 592 ------- 1 0.0 4.0 25 40
+ 3.158952 0 2 tcp 592 ------- 1 0.0 4.0 26 41
+ 3.158952 0 2 tcp 592 ------- 1 0.0 4.0 27 42
- 3.16132 0 2 tcp 592 ------- 1 0.0 4.0 26 41
- 3.163688 0 2 tcp 592 ------- 1 0.0 4.0 27 42
r 3.17132 0 2 tcp 592 ------- 1 0.0 4.0 25 40
r 3.173688 0 2 tcp 592 ------- 1 0.0 4.0 26 41
r 3.176056 0 2 tcp 592 ------- 1 0.0 4.0 27 42
+ 3.258952 0 2 tcp 592 ------- 1 0.0 4.0 28 43
- 3.258952 0 2 tcp 592 ------- 1 0.0 4.0 28 43
+ 3.258952 0 2 tcp 592 ------- 1 0.0 4.0 29 44
+ 3.258952 0 2 tcp 592 ------- 1 0.0 4.0 30 45
- 3.26132 0 2 tcp 592 ------- 1 0.0 4.0 29 44
- 3.263688 0 2 tcp 592 ------- 1 0.0 4.0 30 45
r 3.27132 0 2 tcp 592 ------- 1 0.0 4.0 28 43
r 3.273688 0 2 tcp 592 ------- 1 0.0 4.0 29 44
r 3.276056 0 2 tcp 592 ------- 1 0.0 4.0 30 45
+ 3.458341 0 2 tcp 592 ------- 1 0.0 4.0 31 51
- 3.458341 0 2 tcp 592 ------- 1 0.0 4.0 31 51
+ 3.458341 0 2 tcp 592 ------- 1 0.0 4.0 32 52
+ 3.458341 0 2 tcp 592 ------- 1 0.0 4.0 33 53
- 3.460709 0 2 tcp 592 ------- 1 0.0 4.0 32 52
- 3.463077 0 2 tcp 592 ------- 1 0.0 4.0 33 53
r 3.470709 0 2 tcp 592 ------- 1 0.0 4.0 31 51
r 3.473077 0 2 tcp 592 ------- 1 0.0 4.0 32 52
r 3.475445 0 2 tcp 592 ------- 1 0.0 4.0 33 53
+ 3.526768 0 2 tcp 592 ------- 1 0.0 4.0 34 56
- 3.526768 0 2 tcp 592 ------- 1 0.0 4.0 34 56
+ 3.526768 0 2 tcp 592 ------- 1 0.0 4.0 35 57
+ 3.526768 0 2 tcp 592 ------- 1 0.0 4.0 36 58
- 3.529136 0 2 tcp 592 ------- 1 0.0 4.0 35 57
- 3.531504 0 2 tcp 592 ------- 1 0.0 4.0 36 58
r 3.539136 0 2 tcp 592 ------- 1 0.0 4.0 34 56
r 3.541504 0 2 tcp 592 ------- 1 0.0 4.0 35 57
r 3.543872 0 2 tcp 592 ------- 1 0.0 4.0 36 58
+ 3.558341 0 2 tcp 592 ------- 1 0.0 4.0 37 59
- 3.558341 0 2 tcp 592 ------- 1 0.0 4.0 37 59
+ 3.558341 0 2 tcp 592 ------- 1 0.0 4.0 38 60
+ 3.558341 0 2 tcp 592 ------- 1 0.0 4.0 39 61
- 3.560709 0 2 tcp 592 ------- 1 0.0 4.0 38 60
- 3.563077 0 2 tcp 592 ------- 1 0.0 4.0 39 61
r 3.570709 0 2 tcp 592 ------- 1 0.0 4.0 37 59
r 3.573077 0 2 tcp 592 ------- 1 0.0 4.0 38 60
r 3.575445 0 2 tcp 592 ------- 1 0.0 4.0 39 61
+ 3.589915 0 2 tcp 592 ------- 1 0.0 4.0 40 62
- 3.589915 0 2 tcp 592 ------- 1 0.0 4.0 40 62
+ 3.589915 0 2 tcp 592 ------- 1 0.0 4.0 41 63
+ 3.589915 0 2 tcp 592 ------- 1 0.0 4.0 42 64
- 3.592283 0 2 tcp 592 ------- 1 0.0 4.0 41 63
- 3.594651 0 2 tcp 592 ------- 1 0.0 4.0 42 64
r 3.602283 0 2 tcp 592 ------- 1 0.0 4.0 40 62
r 3.604651 0 2 tcp 592 ------- 1 0.0 4.0 41 63
r 3.607019 0 2 tcp 592 ------- 1 0.0 4.0 42 64
+ 3.658341 0 2 tcp 592 ------- 1 0.0 4.0 43 65
- 3.658341 0 2 tcp 592 ------- 1 0.0 4.0 43 65
+ 3.658341 0 2 tcp 592 ------- 1 0.0 4.0 44 66
+ 3.658341 0 2 tcp 592 ------- 1 0.0 4.0 45 67
- 3.660709 0 2 tcp 592 ------- 1 0.0 4.0 44 66
- 3.663077 0 2 tcp 592 ------- 1 0.0 4.0 45 67
r 3.670709 0 2 tcp 592 ------- 1 0.0 4.0 43 65
r 3.673077 0 2 tcp 592 ------- 1 0.0 4.0 44 66
r 3.675445 0 2 tcp 592 ------- 1 0.0 4.0 45 67
+ 3.689915 0 2 tcp 592 ------- 1 0.0 4.0 46 69
- 3.689915 0 2 tcp 592 ------- 1 0.0 4.0 46 69
+ 3.689915 0 2 tcp 592 ------- 1 0.0 4.0 47 70
+ 3.689915 0 2 tcp 592 ------- 1 0.0 4.0 48 71
- 3.692283 0 2 tcp 592 ------- 1 0.0 4.0 47 70
- 3.694651 0 2 tcp 592 ------- 1 0.0 4.0 48 71
r 3.702283 0 2 tcp 592 ------- 1 0.0 4.0 46 69
r 3.704651 0 2 tcp 592 ------- 1 0.0 4.0 47 70
r 3.707019 0 2 tcp 592 ------- 1 0.0 4.0 48 71
+ 3.873517 0 2 tcp 592 ------- 1 0.0 4.0 49 77
- 3.873517 0 2 tcp 592 ------- 1 0.0 4.0 49 77
+ 3.873517 0 2 tcp 592 ------- 1 0.0 4.0 50 78
+ 3.873517 0 2 tcp 592 ------- 1 0.0 4.0 51 79
- 3.875885 0 2 tcp 592 ------- 1 0.0 4.0 50 78
- 3.878253 0 2 tcp 592 ------- 1 0.0 4.0 51 79
r 3.885885 0 2 tcp 592 ------- 1 0.0 4.0 49 77
r 3.888253 0 2 tcp 592 ------- 1 0.0 4.0 50 78
r 3.890621 0 2 tcp 592 ------- 1 0.0 4.0 51 79
+ 3.926157 0 2 tcp 592 ------- 1 0.0 4.0 52 82
- 3.926157 0 2 tcp 592 ------- 1 0.0 4.0 52 82
+ 3.926157 0 2 tcp 592 ------- 1 0.0 4.0 53 83
+ 3.926157 0 2 tcp 592 ------- 1 0.0 4.0 54 84
- 3.928525 0 2 tcp 592 ------- 1 0.0 4.0 53 83
- 3.930893 0 2 tcp 592 ------- 1 0.0 4.0 54 84
r 3.938525 0 2 tcp 592 ------- 1 0.0 4.0 52 82
r 3.940893 0 2 tcp 592 ------- 1 0.0 4.0 53 83
r 3.943261 0 2 tcp 592 ------- 1 0.0 4.0 54 84
+ 3.957731 0 2 tcp 592 ------- 1 0.0 4.0 55 86
- 3.957731 0 2 tcp 592 ------- 1 0.0 4.0 55 86
+ 3.957731 0 2 tcp 592 ------- 1 0.0 4.0 56 87
+ 3.957731 0 2 tcp 592 ------- 1 0.0 4.0 57 88
- 3.960099 0 2 tcp 592 ------- 1 0.0 4.0 56 87
- 3.962467 0 2 tcp 592 ------- 1 0.0 4.0 57 88
r 3.970099 0 2 tcp 592 ------- 1 0.0 4.0 55 86
r 3.972467 0 2 tcp 592 ------- 1 0.0 4.0 56 87
r 3.974835 0 2 tcp 592 ------- 1 0.0 4.0 57 88
+ 3.989304 0 2 tcp 592 ------- 1 0.0 4.0 58 89
- 3.989304 0 2 tcp 592 ------- 1 0.0 4.0 58 89
+ 3.989304 0 2 tcp 592 ------- 1 0.0 4.0 59 90
+ 3.989304 0 2 tcp 592 ------- 1 0.0 4.0 60 91
- 3.991672 0 2 tcp 592 ------- 1 0.0 4.0 59 90
- 3.99404 0 2 tcp 592 ------- 1 0.0 4.0 60 91
r 4.001672 0 2 tcp 592 ------- 1 0.0 4.0 58 89
r 4.00404 0 2 tcp 592 ------- 1 0.0 4.0 59 90
r 4.006408 0 2 tcp 592 ------- 1 0.0 4.0 60 91
+ 4.020877 0 2 tcp 592 ------- 1 0.0 4.0 61 92
- 4.020877 0 2 tcp 592 ------- 1 0.0 4.0 61 92
+ 4.020877 0 2 tcp 592 ------- 1 0.0 4.0 62 93
+ 4.020877 0 2 tcp 592 ------- 1 0.0 4.0 63 94
- 4.023245 0 2 tcp 592 ------- 1 0.0 4.0 62 93
- 4.025613 0 2 tcp 592 ------- 1 0.0 4.0 63 94
r 4.033245 0 2 tcp 592 ------- 1 0.0 4.0 61 92
r 4.035613 0 2 tcp 592 ------- 1 0.0 4.0 62 93
r 4.037981 0 2 tcp 592 ------- 1 0.0 4.0 63 94
+ 4.052451 0 2 tcp 592 ------- 1 0.0 4.0 64 95
- 4.052451 0 2 tcp 592 ------- 1 0.0 4.0 64 95
+ 4.052451 0 2 tcp 592 ------- 1 0.0 4.0 65 96
+ 4.052451 0 2 tcp 592 ------- 1 0.0 4.0 66 97
- 4.054819 0 2 tcp 592 ------- 1 0.0 4.0 65 96
- 4.057187 0 2 tcp 592 ------- 1 0.0 4.0 66 97
r 4.064819 0 2 tcp 592 ------- 1 0.0 4.0 64 95
r 4.067187 0 2 tcp 592 ------- 1 0.0 4.0 65 96
r 4.069555 0 2 tcp 592 ------- 1 0.0 4.0 66 97
+ 4.084024 0 2 tcp 592 ------- 1 0.0 4.0 67 98
- 4.084024 0 2 tcp 592 ------- 1 0.0 4.0 67 98
+ 4.084024 0 2 tcp 592 ------- 1 0.0 4.0 68 99
+ 4.084024 0 2 tcp 592 ------- 1 0.0 4.0 69 100
- 4.086392 0 2 tcp 592 ------- 1 0.0 4.0 68 99
- 4.08876 0 2 tcp 592 ------- 1 0.0 4.0 69 100
r 4.096392 0 2 tcp 592 ------- 1 0.0 4.0 67 98
r 4.09876 0 2 tcp 592 ------- 1 0.0 4.0 68 99
r 4.101128 0 2 tcp 592 ------- 1 0.0 4.0 69 100
+ 4.115597 0 2 tcp 592 ------- 1 0.0 4.0 70 103
- 4.115597 0 2 tcp 592 ------- 1 0.0 4.0 70 103
+ 4.115597 0 2 tcp 592 ------- 1 0.0 4.0 71 104
+ 4.115597 0 2 tcp 592 ------- 1 0.0 4.0 72 105
- 4.117965 0 2 tcp 592 ------- 1 0.0 4.0 71 104
- 4.120333 0 2 tcp 592 ------- 1 0.0 4.0 72 105
r 4.127965 0 2 tcp 592 ------- 1 0.0 4.0 70 103
r 4.130333 0 2 tcp 592 ------- 1 0.0 4.0 71 104
r 4.132701 0 2 tcp 592 ------- 1 0.0 4.0 72 105
+ 4.147171 0 2 tcp 592 ------- 1 0.0 4.0 73 107
- 4.147171 0 2 tcp 592 ------- 1 0.0 4.0 73 107
+ 4.147171 0 2 tcp 592 ------- 1 0.0 4.0 74 108
+ 4.147171 0 2 tcp 592 ------- 1 0.0 4.0 75 109
- 4.149539 0 2 tcp 592 ------- 1 0.0 4.0 74 108
- 4.151907 0 2 tcp 592 ------- 1 0.0 4.0 75 109
r 4.159539 0 2 tcp 592 ------- 1 0.0 4.0 73 107
r 4.161907 0 2 tcp 592 ------- 1 0.0 4.0 74 108
r 4.164275 0 2 tcp 592 ------- 1 0.0 4.0 75 109
+ 4.288693 0 2 tcp 592 ------- 1 0.0 4.0 76 114
- 4.288693 0 2 tcp 592 ------- 1 0.0 4.0 76 114
+ 4.288693 0 2 tcp 592 ------- 1 0.0 4.0 77 115
+ 4.288693 0 2 tcp 592 ------- 1 0.0 4.0 78 116
- 4.291061 0 2 tcp 592 ------- 1 0.0 4.0 77 115
- 4.293429 0 2 tcp 592 ------- 1 0.0 4.0 78 116
r 4.301061 0 2 tcp 592 ------- 1 0.0 4.0 76 114
r 4.303429 0 2 tcp 592 ------- 1 0.0 4.0 77 115
r 4.305797 0 2 tcp 592 ------- 1 0.0 4.0 78 116
+ 4.325547 0 2 tcp 592 ------- 1 0.0 4.0 79 119
- 4.325547 0 2 tcp 592 ------- 1 0.0 4.0 79 119
+ 4.325547 0 2 tcp 592 ------- 1 0.0 4.0 80 120
+ 4.325547 0 2 tcp 592 ------- 1 0.0 4.0 81 121
- 4.327915 0 2 tcp 592 ------- 1 0.0 4.0 80 120
- 4.330283 0 2 tcp 592 ------- 1 0.0 4.0 81 121
r 4.337915 0 2 tcp 592 ------- 1 0.0 4.0 79 119
r 4.340283 0 2 tcp 592 ------- 1 0.0 4.0 80 120
r 4.342651 0 2 tcp 592 ------- 1 0.0 4.0 81 121
+ 4.35712 0 2 tcp 592 ------- 1 0.0 4.0 82 123
- 4.35712 0 2 tcp 592 ------- 1 0.0 4.0 82 123
+ 4.35712 0 2 tcp 592 ------- 1 0.0 4.0 83 124
+ 4.35712 0 2 tcp 592 ------- 1 0.0 4.0 84 125
- 4.359488 0 2 tcp 592 ------- 1 0.0 4.0 83 124
- 4.361856 0 2 tcp 592 ------- 1 0.0 4.0 84 125
r 4.369488 0 2 tcp 592 ------- 1 0.0 4.0 82 123
r 4.371856 0 2 tcp 592 ------- 1 0.0 4.0 83 124
r 4.374224 0 2 tcp 592 ------- 1 0.0 4.0 84 125
+ 4.388693 0 2 tcp 592 ------- 1 0.0 4.0 85 127
- 4.388693 0 2 tcp 592 ------- 1 0.0 4.0 85 127
+ 4.388693 0 2 tcp 592 ------- 1 0.0 4.0 86 128
+ 4.388693 0 2 tcp 592 ------- 1 0.0 4.0 87 129
- 4.391061 0 2 tcp 592 ------- 1 0.0 4.0 86 128
- 4.393429 0 2 tcp 592 ------- 1 0.0 4.0 87 129
r 4.401061 0 2 tcp 592 ------- 1 0.0 4.0 85 127
r 4.403429 0 2 tcp 592 ------- 1 0.0 4.0 86 128
r 4.405797 0 2 tcp 592 ------- 1 0.0 4.0 87 129
+ 4.420267 0 2 tcp 592 ------- 1 0.0 4.0 88 130
- 4.420267 0 2 tcp 592 ------- 1 0.0 4.0 88 130
+ 4.420267 0 2 tcp 592 ------- 1 0.0 4.0 89 131
+ 4.420267 0 2 tcp 592 ------- 1 0.0 4.0 90 132
- 4.422635 0 2 tcp 592 ------- 1 0.0 4.0 89 131
- 4.425003 0 2 tcp 592 ------- 1 0.0 4.0 90 132
r 4.432635 0 2 tcp 592 ------- 1 0.0 4.0 88 130
r 4.435003 0 2 tcp 592 ------- 1 0.0 4.0 89 131
r 4.437371 0 2 tcp 592 ------- 1 0.0 4.0 90 132
+ 4.45184 0 2 tcp 592 ------- 1 0.0 4.0 91 134
- 4.45184 0 2 tcp 592 ------- 1 0.0 4.0 91 134
+ 4.45184 0 2 tcp 592 ------- 1 0.0 4.0 92 135
+ 4.45184 0 2 tcp 592 ------- 1 0.0 4.0 93 136
- 4.454208 0 2 tcp 592 ------- 1 0.0 4.0 92 135
- 4.456576 0 2 tcp 592 ------- 1 0.0 4.0 93 136
r 4.464208 0 2 tcp 592 ------- 1 0.0 4.0 91 134
r 4.466576 0 2 tcp 592 ------- 1 0.0 4.0 92 135
r 4.468944 0 2 tcp 592 ------- 1 0.0 4.0 93 136
+ 4.483413 0 2 tcp 592 ------- 1 0.0 4.0 94 138
- 4.483413 0 2 tcp 592 ------- 1 0.0 4.0 94 138
+ 4.483413 0 2 tcp 592 ------- 1 0.0 4.0 95 139
+ 4.483413 0 2 tcp 592 ------- 1 0.0 4.0 96 140
- 4.485781 0 2 tcp 592 ------- 1 0.0 4.0 95 139
- 4.488149 0 2 tcp 592 ------- 1 0.0 4.0 96 140
r 4.495781 0 2 tcp 592 ------- 1 0.0 4.0 94 138
r 4.498149 0 2 tcp 592 ------- 1 0.0 4.0 95 139
r 4.500517 0 2 tcp 592 ------- 1 0.0 4.0 96 140
+ 4.514987 0 2 tcp 592 ------- 1 0.0 4.0 97 142
- 4.514987 0 2 tcp 592 ------- 1 0.0 4.0 97 142
+ 4.514987 0 2 tcp 592 ------- 1 0.0 4.0 98 143
+ 4.514987 0 2 tcp 592 ------- 1 0.0 4.0 99 144
- 4.517355 0 2 tcp 592 ------- 1 0.0 4.0 98 143
- 4.519723 0 2 tcp 592 ------- 1 0.0 4.0 99 144
r 4.527355 0 2 tcp 592 ------- 1 0.0 4.0 97 142
r 4.529723 0 2 tcp 592 ------- 1 0.0 4.0 98 143
r 4.532091 0 2 tcp 592 ------- 1 0.0 4.0 99 144
+ 4.54656 0 2 tcp 592 ------- 1 0.0 4.0 100 146
- 4.54656 0 2 tcp 592 ------- 1 0.0 4.0 100 146
+ 4.54656 0 2 tcp 592 ------- 1 0.0 4.0 101 147
+ 4.54656 0 2 tcp 592 ------- 1 0.0 4.0 102 148
- 4.548928 0 2 tcp 592 ------- 1 0.0 4.0 101 147
- 4.551296 0 2 tcp 592 ------- 1 0.0 4.0 102 148
r 4.558928 0 2 tcp 592 ------- 1 0.0 4.0 100 146
r 4.561296 0 2 tcp 592 ------- 1 0.0 4.0 101 147
r 4.563664 0 2 tcp 592 ------- 1 0.0 4.0 102 148
+ 4.578133 0 2 tcp 592 ------- 1 0.0 4.0 103 150
- 4.578133 0 2 tcp 592 ------- 1 0.0 4.0 103 150
+ 4.578133 0 2 tcp 592 ------- 1 0.0 4.0 104 151
+ 4.578133 0 2 tcp 592 ------- 1 0.0 4.0 105 152
- 4.580501 0 2 tcp 592 ------- 1 0.0 4.0 104 151
- 4.582869 0 2 tcp 592 ------- 1 0.0 4.0 105 152
r 4.590501 0 2 tcp 592 ------- 1 0.0 4.0 103 150
r 4.592869 0 2 tcp 592 ------- 1 0.0 4.0 104 151
r 4.595237 0 2 tcp 592 ------- 1 0.0 4.0 105 152
+ 4.636373 0 2 tcp 592 ------- 1 0.0 4.0 106 155
- 4.636373 0 2 tcp 592 ------- 1 0.0 4.0 106 155
+ 4.636373 0 2 tcp 592 ------- 1 0.0 4.0 107 156
+ 4.636373 0 2 tcp 592 ------- 1 0.0 4.0 108 157
- 4.638741 0 2 tcp 592 ------- 1 0.0 4.0 107 156
- 4.641109 0 2 tcp 592 ------- 1 0.0 4.0 108 157
r 4.648741 0 2 tcp 592 ------- 1 0.0 4.0 106 155
r 4.651109 0 2 tcp 592 ------- 1 0.0 4.0 107 156
r 4.653477 0 2 tcp 592 ------- 1 0.0 4.0 108 157
+ 4.667947 0 2 tcp 592 ------- 1 0.0 4.0 109 159
- 4.667947 0 2 tcp 592 ------- 1 0.0 4.0 109 159
+ 4.667947 0 2 tcp 592 ------- 1 0.0 4.0 110 160
+ 4.667947 0 2 tcp 592 ------- 1 0.0 4.0 111 161
- 4.670315 0 2 tcp 592 ------- 1 0.0 4.0 110 160
- 4.672683 0 2 tcp 592 ------- 1 0.0 4.0 111 161
r 4.680315 0 2 tcp 592 ------- 1 0.0 4.0 109 159
r 4.682683 0 2 tcp 592 ------- 1 0.0 4.0 110 160
r 4.685051 0 2 tcp 592 ------- 1 0.0 4.0 111 161
+ 4.69952 0 2 tcp 592 ------- 1 0.0 4.0 112 163
- 4.69952 0 2 tcp 592 ------- 1 0.0 4.0 112 163
+ 4.69952 0 2 tcp 592 ------- 1 0.0 4.0 113 164
+ 4.69952 0 2 tcp 592 ------- 1 0.0 4.0 114 165
- 4.701888 0 2 tcp 592 ------- 1 0.0 4.0 113 164
- 4.704256 0 2 tcp 592 ------- 1 0.0 4.0 114 165
r 4.711888 0 2 tcp 592 ------- 1 0.0 4.0 112 163
r 4.714256 0 2 tcp 592 ------- 1 0.0 4.0 113 164
r 4.716624 0 2 tcp 592 ------- 1 0.0 4.0 114 165
+ 4.731093 0 2 tcp 592 ------- 1 0.0 4.0 115 167
- 4.731093 0 2 tcp 592 ------- 1 0.0 4.0 115 167
+ 4.731093 0 2 tcp 592 ------- 1 0.0 4.0 116 168
+ 4.731093 0 2 tcp 592 ------- 1 0.0 4.0 117 169
- 4.733461 0 2 tcp 592 ------- 1 0.0 4.0 116 168
- 4.735829 0 2 tcp 592 ------- 1 0.0 4.0 117 169
r 4.743461 0 2 tcp 592 ------- 1 0.0 4.0 115 167
r 4.745829 0 2 tcp 592 ------- 1 0.0 4.0 116 168
r 4.748197 0 2 tcp 592 ------- 1 0.0 4.0 117 169
+ 4.762667 0 2 tcp 592 ------- 1 0.0 4.0 118 171
- 4.762667 0 2 tcp 592 ------- 1 0.0 4.0 118 171
+ 4.762667 0 2 tcp 592 ------- 1 0.0 4.0 119 172
+ 4.762667 0 2 tcp 592 ------- 1 0.0 4.0 120 173
- 4.765035 0 2 tcp 592 ------- 1 0.0 4.0 119 172
- 4.767403 0 2 tcp 592 ------- 1 0.0 4.0 120 173
r 4.775035 0 2 tcp 592 ------- 1 0.0 4.0 118 171
r 4.777403 0 2 tcp 592 ------- 1 0.0 4.0 119 172
r 4.779771 0 2 tcp 592 ------- 1 0.0 4.0 120 173
+ 4.79424 0 2 tcp 592 ------- 1 0.0 4.0 121 175
- 4.79424 0 2 tcp 592 ------- 1 0.0 4.0 121 175
+ 4.79424 0 2 tcp 592 ------- 1 0.0 4.0 122 176
+ 4.79424 0 2 tcp 592 ------- 1 0.0 4.0 123 177
- 4.796608 0 2 tcp 592 ------- 1 0.0 4.0 122 176
- 4.798976 0 2 tcp 592 ------- 1 0.0 4.0 123 177
r 4.806608 0 2 tcp 592 ------- 1 0.0 4.0 121 175
r 4.808976 0 2 tcp 592 ------- 1 0.0 4.0 122 176
r 4.811344 0 2 tcp 592 ------- 1 0.0 4.0 123 177
+ 4.825813 0 2 tcp 592 ------- 1 0.0 4.0 124 179
- 4.825813 0 2 tcp 592 ------- 1 0.0 4.0 124 179
+ 4.825813 0 2 tcp 592 ------- 1 0.0 4.0 125 180
+ 4.825813 0 2 tcp 592 ------- 1 0.0 4.0 126 181
- 4.828181 0 2 tcp 592 ------- 1 0.0 4.0 125 180
- 4.830549 0 2 tcp 592 ------- 1 0.0 4.0 126 181
r 4.838181 0 2 tcp 592 ------- 1 0.0 4.0 124 179
r 4.840549 0 2 tcp 592 ------- 1 0.0 4.0 125 180
r 4.842917 0 2 tcp 592 ------- 1 0.0 4.0 126 181
+ 4.857387 0 2 tcp 592 ------- 1 0.0 4.0 127 183
- 4.857387 0 2 tcp 592 ------- 1 0.0 4.0 127 183
+ 4.857387 0 2 tcp 592 ------- 1 0.0 4.0 128 184
+ 4.857387 0 2 tcp 592 ------- 1 0.0 4.0 129 185
- 4.859755 0 2 tcp 592 ------- 1 0.0 4.0 128 184
- 4.862123 0 2 tcp 592 ------- 1 0.0 4.0 129 185
r 4.869755 0 2 tcp 592 ------- 1 0.0 4.0 127 183
r 4.872123 0 2 tcp 592 ------- 1 0.0 4.0 128 184
r 4.874491 0 2 tcp 592 ------- 1 0.0 4.0 129 185
+ 4.88896 0 2 tcp 592 ------- 1 0.0 4.0 130 187
- 4.88896 0 2 tcp 592 ------- 1 0.0 4.0 130 187
+ 4.88896 0 2 tcp 592 ------- 1 0.0 4.0 131 188
+ 4.88896 0 2 tcp 592 ------- 1 0.0 4.0 132 189
- 4.891328 0 2 tcp 592 ------- 1 0.0 4.0 131 188
- 4.893696 0 2 tcp 592 ------- 1 0.0 4.0 132 189
r 4.901328 0 2 tcp 592 ------- 1 0.0 4.0 130 187
r 4.903696 0 2 tcp 592 ------- 1 0.0 4.0 131 188
r 4.906064 0 2 tcp 592 ------- 1 0.0 4.0 132 189
+ 4.920533 0 2 tcp 592 ------- 1 0.0 4.0 133 192
- 4.920533 0 2 tcp 592 ------- 1 0.0 4.0 133 192
+ 4.920533 0 2 tcp 592 ------- 1 0.0 4.0 134 193
+ 4.920533 0 2 tcp 592 ------- 1 0.0 4.0 135 194
- 4.922901 0 2 tcp 592 ------- 1 0.0 4.0 134 193
- 4.925269 0 2 tcp 592 ------- 1 0.0 4.0 135 194
r 4.932901 0 2 tcp 592 ------- 1 0.0 4.0 133 192
r 4.935269 0 2 tcp 592 ------- 1 0.0 4.0 134 193
r 4.937637 0 2 tcp 592 ------- 1 0.0 4.0 135 194
+ 4.952107 0 2 tcp 592 ------- 1 0.0 4.0 136 196
- 4.952107 0 2 tcp 592 ------- 1 0.0 4.0 136 196
+ 4.952107 0 2 tcp 592 ------- 1 0.0 4.0 137 197
+ 4.952107 0 2 tcp 592 ------- 1 0.0 4.0 138 198
- 4.954475 0 2 tcp 592 ------- 1 0.0 4.0 137 197
- 4.956843 0 2 tcp 592 ------- 1 0.0 4.0 138 198
r 4.964475 0 2 tcp 592 ------- 1 0.0 4.0 136 196
r 4.966843 0 2 tcp 592 ------- 1 0.0 4.0 137 197
r 4.969211 0 2 tcp 592 ------- 1 0.0 4.0 138 198
+ 4.98368 0 2 tcp 592 ------- 1 0.0 4.0 139 200
- 4.98368 0 2 tcp 592 ------- 1 0.0 4.0 139 200
+ 4.98368 0 2 tcp 592 ------- 1 0.0 4.0 140 201
+ 4.98368 0 2 tcp 592 ------- 1 0.0 4.0 141 202
- 4.986048 0 2 tcp 592 ------- 1 0.0 4.0 140 201
- 4.988416 0 2 tcp 592 ------- 1 0.0 4.0 141 202
r 4.996048 0 2 tcp 592 ------- 1 0.0 4.0 139 200
r 4.998416 0 2 tcp 592 ------- 1 0.0 4.0 140 201
r 5.000784 0 2 tcp 592 ------- 1 0.0 4.0 141 202
+ 5.015253 0 2 tcp 592 ------- 1 0.0 4.0 142 204
- 5.015253 0 2 tcp 592 ------- 1 0.0 4.0 142 204
+ 5.015253 0 2 tcp 592 ------- 1 0.0 4.0 143 205
+ 5.015253 0 2 tcp 592 ------- 1 0.0 4.0 144 206
- 5.017621 0 2 tcp 592 ------- 1 0.0 4.0 143 205
- 5.019989 0 2 tcp 592 ------- 1 0.0 4.0 144 206
r 5.027621 0 2 tcp 592 ------- 1 0.0 4.0 142 204
r 5.029989 0 2 tcp 592 ------- 1 0.0 4.0 143 205
r 5.032357 0 2 tcp 592 ------- 1 0.0 4.0 144 206
+ 5.046827 0 2 tcp 592 ------- 1 0.0 4.0 145 208
- 5.046827 0 2 tcp 592 ------- 1 0.0 4.0 145 208
+ 5.046827 0 2 tcp 592 ------- 1 0.0 4.0 146 209
+ 5.046827 0 2 tcp 592 ------- 1 0.0 4.0 147 210
- 5.049195 0 2 tcp 592 ------- 1 0.0 4.0 146 209
- 5.051563 0 2 tcp 592 ------- 1 0.0 4.0 147 210
r 5.059195 0 2 tcp 592 ------- 1 0.0 4.0 145 208
r 5.061563 0 2 tcp 592 ------- 1 0.0 4.0 146 209
r 5.063931 0 2 tcp 592 ------- 1 0.0 4.0 147 210
+ 5.0784 0 2 tcp 592 ------- 1 0.0 4.0 148 212
- 5.0784 0 2 tcp 592 ------- 1 0.0 4.0 148 212
+ 5.0784 0 2 tcp 592 ------- 1 0.0 4.0 149 213
+ 5.0784 0 2 tcp 592 ------- 1 0.0 4.0 150 214
- 5.080768 0 2 tcp 592 ------- 1 0.0 4.0 149 213
- 5.083136 0 2 tcp 592 ------- 1 0.0 4.0 150 214
r 5.090768 0 2 tcp 592 ------- 1 0.0 4.0 148 212
r 5.093136 0 2 tcp 592 ------- 1 0.0 4.0 149 213
r 5.095504 0 2 tcp 592 ------- 1 0.0 4.0 150 214
+ 5.109973 0 2 tcp 592 ------- 1 0.0 4.0 151 216
- 5.109973 0 2 tcp 592 ------- 1 0.0 4.0 151 216
+ 5.109973 0 2 tcp 592 ------- 1 0.0 4.0 152 217
+ 5.109973 0 2 tcp 592 ------- 1 0.0 4.0 153 218
- 5.112341 0 2 tcp 592 ------- 1 0.0 4.0 152 217
- 5.114709 0 2 tcp 592 ------- 1 0.0 4.0 153 218
r 5.122341 0 2 tcp 592 ------- 1 0.0 4.0 151 216
r 5.124709 0 2 tcp 592 ------- 1 0.0 4.0 152 217
r 5.127077 0 2 tcp 592 ------- 1 0.0 4.0 153 218
+ 5.141547 0 2 tcp 592 ------- 1 0.0 4.0 154 220
- 5.141547 0 2 tcp 592 ------- 1 0.0 4.0 154 220
+ 5.141547 0 2 tcp 592 ------- 1 0.0 4.0 155 221
+ 5.141547 0 2 tcp 592 ------- 1 0.0 4.0 156 222
- 5.143915 0 2 tcp 592 ------- 1 0.0 4.0 155 221
- 5.146283 0 2 tcp 592 ------- 1 0.0 4.0 156 222
r 5.153915 0 2 tcp 592 ------- 1 0.0 4.0 154 220
r 5.156283 0 2 tcp 592 ------- 1 0.0 4.0 155 221
r 5.158651 0 2 tcp 592 ------- 1 0.0 4.0 156 222
+ 5.17312 0 2 tcp 592 ------- 1 0.0 4.0 157 224
- 5.17312 0 2 tcp 592 ------- 1 0.0 4.0 157 224
+ 5.17312 0 2 tcp 592 ------- 1 0.0 4.0 158 225
+ 5.17312 0 2 tcp 592 ------- 1 0.0 4.0 159 226
- 5.175488 0 2 tcp 592 ------- 1 0.0 4.0 158 225
- 5.177856 0 2 tcp 592 ------- 1 0.0 4.0 159 226
r 5.185488 0 2 tcp 592 ------- 1 0.0 4.0 157 224
r 5.187856 0 2 tcp 592 ------- 1 0.0 4.0 158 225
r 5.190224 0 2 tcp 592 ------- 1 0.0 4.0 159 226
+ 5.204693 0 2 tcp 592 ------- 1 0.0 4.0 160 228
- 5.204693 0 2 tcp 592 ------- 1 0.0 4.0 160 228
+ 5.204693 0 2 tcp 592 ------- 1 0.0 4.0 161 229
+ 5.204693 0 2 tcp 592 ------- 1 0.0 4.0 162 230
- 5.207061 0 2 tcp 592 ------- 1 0.0 4.0 161 229
- 5.209429 0 2 tcp 592 ------- 1 0.0 4.0 162 230
r 5.217061 0 2 tcp 592 ------- 1 0.0 4.0 160 228
r 5.219429 0 2 tcp 592 ------- 1 0.0 4.0 161 229
r 5.221797 0 2 tcp 592 ------- 1 0.0 4.0 162 230
+ 5.236267 0 2 tcp 592 ------- 1 0.0 4.0 163 232
- 5.236267 0 2 tcp 592 ------- 1 0.0 4.0 163 232
+ 5.236267 0 2 tcp 592 ------- 1 0.0 4.0 164 233
+ 5.236267 0 2 tcp 592 ------- 1 0.0 4.0 165 234
- 5.238635 0 2 tcp 592 ------- 1 0.0 4.0 164 233
- 5.241003 0 2 tcp 592 ------- 1 0.0 4.0 165 234
r 5.248635 0 2 tcp 592 ------- 1 0.0 4.0 163 232
r 5.251003 0 2 tcp 592 ------- 1 0.0 4.0 164 233
r 5.253371 0 2 tcp 592 ------- 1 0.0 4.0 165 234
+ 5.26784 0 2 tcp 592 ------- 1 0.0 4.0 166 236
- 5.26784 0 2 tcp 592 ------- 1 0.0 4.0 166 236
+ 5.26784 0 2 tcp 592 ------- 1 0.0 4.0 167 237
+ 5.26784 0 2 tcp 592 ------- 1 0.0 4.0 168 238
- 5.270208 0 2 tcp 592 ------- 1 0.0 4.0 167 237
- 5.272576 0 2 tcp 592 ------- 1 0.0 4.0 168 238
r 5.280208 0 2 tcp 592 ------- 1 0.0 4.0 166 236
r 5.282576 0 2 tcp 592 ------- 1 0.0 4.0 167 237
r 5.284944 0 2 tcp 592 ------- 1 0.0 4.0 168 238
+ 5.299413 0 2 tcp 592 ------- 1 0.0 4.0 169 240
- 5.299413 0 2 tcp 592 ------- 1 0.0 4.0 169 240
+ 5.299413 0 2 tcp 592 ------- 1 0.0 4.0 170 241
+ 5.299413 0 2 tcp 592 ------- 1 0.0 4.0 171 242
- 5.301781 0 2 tcp 592 ------- 1 0.0 4.0 170 241
- 5.304149 0 2 tcp 592 ------- 1 0.0 4.0 171 242
r 5.311781 0 2 tcp 592 ------- 1 0.0 4.0 169 240
r 5.314149 0 2 tcp 592 ------- 1 0.0 4.0 170 241
r 5.316517 0 2 tcp 592 ------- 1 0.0 4.0 171 242
+ 5.330987 0 2 tcp 592 ------- 1 0.0 4.0 172 244
- 5.330987 0 2 tcp 592 ------- 1 0.0 4.0 172 244
+ 5.330987 0 2 tcp 592 ------- 1 0.0 4.0 173 245
+ 5.330987 0 2 tcp 592 ------- 1 0.0 4.0 174 246
- 5.333355 0 2 tcp 592 ------- 1 0.0 4.0 173 245
- 5.335723 0 2 tcp 592 ------- 1 0.0 4.0 174 246
r 5.343355 0 2 tcp 592 ------- 1 0.0 4.0 172 244
r 5.345723 0 2 tcp 592 ------- 1 0.0 4.0 173 245
r 5.348091 0 2 tcp 592 ------- 1 0.0 4.0 174 246
+ 5.36256 0 2 tcp 592 ------- 1 0.0 4.0 175 248
- 5.36256 0 2 tcp 592 ------- 1 0.0 4.0 175 248
+ 5.36256 0 2 tcp 592 ------- 1 0.0 4.0 176 249
+ 5.36256 0 2 tcp 592 ------- 1 0.0 4.0 177 250
- 5.364928 0 2 tcp 592 ------- 1 0.0 4.0 176 249
- 5.367296 0 2 tcp 592 ------- 1 0.0 4.0 177 250
r 5.374928 0 2 tcp 592 ------- 1 0.0 4.0 175 248
r 5.377296 0 2 tcp 592 ------- 1 0.0 4.0 176 249
r 5.379664 0 2 tcp 592 ------- 1 0.0 4.0 177 250
+ 5.394133 0 2 tcp 592 ------- 1 0.0 4.0 178 252
- 5.394133 0 2 tcp 592 ------- 1 0.0 4.0 178 252
+ 5.394133 0 2 tcp 592 ------- 1 0.0 4.0 179 253
+ 5.394133 0 2 tcp 592 ------- 1 0.0 4.0 180 254
- 5.396501 0 2 tcp 592 ------- 1 0.0 4.0 179 253
- 5.398869 0 2 tcp 592 ------- 1 0.0 4.0 180 254
r 5.406501 0 2 tcp 592 ------- 1 0.0 4.0 178 252
r 5.408869 0 2 tcp 592 ------- 1 0.0 4.0 179 253
r 5.411237 0 2 tcp 592 ------- 1 0.0 4.0 180 254
+ 5.425707 0 2 tcp 592 ------- 1 0.0 4.0 181 256
- 5.425707 0 2 tcp 592 ------- 1 0.0 4.0 181 256
+ 5.425707 0 2 tcp 592 ------- 1 0.0 4.0 182 257
+ 5.425707 0 2 tcp 592 ------- 1 0.0 4.0 183 258
- 5.428075 0 2 tcp 592 ------- 1 0.0 4.0 182 257
- 5.430443 0 2 tcp 592 ------- 1 0.0 4.0 183 258
r 5.438075 0 2 tcp 592 ------- 1 0.0 4.0 181 256
r 5.440443 0 2 tcp 592 ------- 1 0.0 4.0 182 257
r 5.442811 0 2 tcp 592 ------- 1 0.0 4.0 183 258
+ 5.45728 0 2 tcp 592 ------- 1 0.0 4.0 184 259
- 5.45728 0 2 tcp 592 ------- 1 0.0 4.0 184 259
+ 5.45728 0 2 tcp 592 ------- 1 0.0 4.0 185 260
+ 5.45728 0 2 tcp 592 ------- 1 0.0 4.0 186 261
- 5.459648 0 2 tcp 592 ------- 1 0.0 4.0 185 260
- 5.462016 0 2 tcp 592 ------- 1 0.0 4.0 186 261
r 5.469648 0 2 tcp 592 ------- 1 0.0 4.0 184 259
r 5.472016 0 2 tcp 592 ------- 1 0.0 4.0 185 260
r 5.474384 0 2 tcp 592 ------- 1 0.0 4.0 186 261
+ 5.488853 0 2 tcp 592 ------- 1 0.0 4.0 187 263
- 5.488853 0 2 tcp 592 ------- 1 0.0 4.0 187 263
+ 5.488853 0 2 tcp 592 ------- 1 0.0 4.0 188 264
+ 5.488853 0 2 tcp 592 ------- 1 0.0 4.0 189 265
- 5.491221 0 2 tcp 592 ------- 1 0.0 4.0 188 264
- 5.493589 0 2 tcp 592 ------- 1 0.0 4.0 189 265
r 5.501221 0 2 tcp 592 ------- 1 0.0 4.0 187 263
r 5.503589 0 2 tcp 592 ------- 1 0.0 4.0 188 264
r 5.505957 0 2 tcp 592 ------- 1 0.0 4.0 189 265
+ 5.520427 0 2 tcp 592 ------- 1 0.0 4.0 190 267
- 5.520427 0 2 tcp 592 ------- 1 0.0 4.0 190 267
+ 5.520427 0 2 tcp 592 ------- 1 0.0 4.0 191 268
+ 5.520427 0 2 tcp 592 ------- 1 0.0 4.0 192 269
- 5.522795 0 2 tcp 592 ------- 1 0.0 4.0 191 268
- 5.525163 0 2 tcp 592 ------- 1 0.0 4.0 192 269
r 5.532795 0 2 tcp 592 ------- 1 0.0 4.0 190 267
r 5.535163 0 2 tcp 592 ------- 1 0.0 4.0 191 268
r 5.537531 0 2 tcp 592 ------- 1 0.0 4.0 192 269
+ 5.552 0 2 tcp 592 ------- 1 0.0 4.0 193 271
- 5.552 0 2 tcp 592 ------- 1 0.0 4.0 193 271
+ 5.552 0 2 tcp 592 ------- 1 0.0 4.0 194 272
+ 5.552 0 2 tcp 592 ------- 1 0.0 4.0 195 273
- 5.554368 0 2 tcp 592 ------- 1 0.0 4.0 194 272
- 5.556736 0 2 tcp 592 ------- 1 0.0 4.0 195 273
r 5.564368 0 2 tcp 592 ------- 1 0.0 4.0 193 271
r 5.566736 0 2 tcp 592 ------- 1 0.0 4.0 194 272
r 5.569104 0 2 tcp 592 ------- 1 0.0 4.0 195 273
+ 5.583573 0 2 tcp 592 ------- 1 0.0 4.0 196 275
- 5.583573 0 2 tcp 592 ------- 1 0.0 4.0 196 275
+ 5.583573 0 2 tcp 592 ------- 1 0.0 4.0 197 276
+ 5.583573 0 2 tcp 592 ------- 1 0.0 4.0 198 277
- 5.585941 0 2 tcp 592 ------- 1 0.0 4.0 197 276
- 5.588309 0 2 tcp 592 ------- 1 0.0 4.0 198 277
r 5.595941 0 2 tcp 592 ------- 1 0.0 4.0 196 275
r 5.598309 0 2 tcp 592 ------- 1 0.0 4.0 197 276
r 5.600677 0 2 tcp 592 ------- 1 0.0 4.0 198 277
+ 5.615147 0 2 tcp 592 ------- 1 0.0 4.0 199 279
- 5.615147 0 2 tcp 592 ------- 1 0.0 4.0 199 279
+ 5.615147 0 2 tcp 592 ------- 1 0.0 4.0 200 280
+ 5.615147 0 2 tcp 592 ------- 1 0.0 4.0 201 281
- 5.617515 0 2 tcp 592 ------- 1 0.0 4.0 200 280
- 5.619883 0 2 tcp 592 ------- 1 0.0 4.0 201 281
r 5.627515 0 2 tcp 592 ------- 1 0.0 4.0 199 279
r 5.629883 0 2 tcp 592 ------- 1 0.0 4.0 200 280
r 5.632251 0 2 tcp 592 ------- 1 0.0 4.0 201 281
+ 5.673387 0 2 tcp 592 ------- 1 0.0 4.0 202 284
- 5.673387 0 2 tcp 592 ------- 1 0.0 4.0 202 284
+ 5.673387 0 2 tcp 592 ------- 1 0.0 4.0 203 285
+ 5.673387 0 2 tcp 592 ------- 1 0.0 4.0 204 286
- 5.675755 0 2 tcp 592 ------- 1 0.0 4.0 203 285
- 5.678123 0 2 tcp 592 ------- 1 0.0 4.0 204 286
r 5.685755 0 2 tcp 592 ------- 1 0.0 4.0 202 284
r 5.688123 0 2 tcp 592 ------- 1 0.0 4.0 203 285
r 5.690491 0 2 tcp 592 ------- 1 0.0 4.0 204 286
+ 5.70496 0 2 tcp 592 ------- 1 0.0 4.0 205 289
- 5.70496 0 2 tcp 592 ------- 1 0.0 4.0 205 289
+ 5.70496 0 2 tcp 592 ------- 1 0.0 4.0 206 290
+ 5.70496 0 2 tcp 592 ------- 1 0.0 4.0 207 291
- 5.707328 0 2 tcp 592 ------- 1 0.0 4.0 206 290
- 5.709696 0 2 tcp 592 ------- 1 0.0 4.0 207 291
r 5.717328 0 2 tcp 592 ------- 1 0.0 4.0 205 289
r 5.719696 0 2 tcp 592 ------- 1 0.0 4.0 206 290
r 5.722064 0 2 tcp 592 ------- 1 0.0 4.0 207 291
+ 5.736533 0 2 tcp 592 ------- 1 0.0 4.0 208 293