v 0 eval {set sim_annotation {Slow Start with maximum window size 8 (in congestion)}}
v 0.050000000000000003 eval {set sim_annotation {FTP starts at 0.1}}
+ 0.1 0 1 tcp 40 ------- 0 0.0 1.0 0 0
- 0.1 0 1 tcp 40 ------- 0 0.0 1.0 0 0
v 0.11 eval {set sim_annotation {Send Packet_0 : Initial window size = 1}}
r 0.3016 0 1 tcp 40 ------- 0 0.0 1.0 0 0
+ 0.3016 1 0 ack 40 ------- 0 1.0 0.0 0 1
- 0.3016 1 0 ack 40 ------- 0 1.0 0.0 0 1
v 0.34000000000000002 eval {set sim_annotation {Receive Ack_0}}
r 0.5032 1 0 ack 40 ------- 0 1.0 0.0 0 1
+ 0.5032 0 1 tcp 1040 ------- 0 0.0 1.0 1 2
- 0.5032 0 1 tcp 1040 ------- 0 0.0 1.0 1 2
+ 0.5032 0 1 tcp 1040 ------- 0 0.0 1.0 2 3
- 0.5448 0 1 tcp 1040 ------- 0 0.0 1.0 2 3
v 0.56000000000000005 eval {set sim_annotation {Send Packet_1,2 : Increase window size to 2}}
r 0.7448 0 1 tcp 1040 ------- 0 0.0 1.0 1 2
+ 0.7448 1 0 ack 40 ------- 0 1.0 0.0 1 4
- 0.7448 1 0 ack 40 ------- 0 1.0 0.0 1 4
r 0.7864 0 1 tcp 1040 ------- 0 0.0 1.0 2 3
+ 0.7864 1 0 ack 40 ------- 0 1.0 0.0 2 5
- 0.7864 1 0 ack 40 ------- 0 1.0 0.0 2 5
v 0.79000000000000004 eval {set sim_annotation {Receive Ack_1,2}}
r 0.9464 1 0 ack 40 ------- 0 1.0 0.0 1 4
+ 0.9464 0 1 tcp 1040 ------- 0 0.0 1.0 3 6
- 0.9464 0 1 tcp 1040 ------- 0 0.0 1.0 3 6
+ 0.9464 0 1 tcp 1040 ------- 0 0.0 1.0 4 7
r 0.988 1 0 ack 40 ------- 0 1.0 0.0 2 5
+ 0.988 0 1 tcp 1040 ------- 0 0.0 1.0 5 8
+ 0.988 0 1 tcp 1040 ------- 0 0.0 1.0 6 9
- 0.988 0 1 tcp 1040 ------- 0 0.0 1.0 4 7
v 0.98999999999999999 eval {set sim_annotation {Send Packet_3,4,5,6 : Increase window size to 4}}
- 1.0296 0 1 tcp 1040 ------- 0 0.0 1.0 5 8
- 1.0712 0 1 tcp 1040 ------- 0 0.0 1.0 6 9
r 1.188 0 1 tcp 1040 ------- 0 0.0 1.0 3 6
+ 1.188 1 0 ack 40 ------- 0 1.0 0.0 3 10
- 1.188 1 0 ack 40 ------- 0 1.0 0.0 3 10
r 1.2296 0 1 tcp 1040 ------- 0 0.0 1.0 4 7
+ 1.2296 1 0 ack 40 ------- 0 1.0 0.0 4 11
- 1.2296 1 0 ack 40 ------- 0 1.0 0.0 4 11
v 1.23 eval {set sim_annotation {Receive Ack_3,4,5,6  }}
r 1.2712 0 1 tcp 1040 ------- 0 0.0 1.0 5 8
+ 1.2712 1 0 ack 40 ------- 0 1.0 0.0 5 12
- 1.2712 1 0 ack 40 ------- 0 1.0 0.0 5 12
r 1.3128 0 1 tcp 1040 ------- 0 0.0 1.0 6 9
+ 1.3128 1 0 ack 40 ------- 0 1.0 0.0 6 13
- 1.3128 1 0 ack 40 ------- 0 1.0 0.0 6 13
r 1.3896 1 0 ack 40 ------- 0 1.0 0.0 3 10
+ 1.3896 0 1 tcp 1040 ------- 0 0.0 1.0 7 14
- 1.3896 0 1 tcp 1040 ------- 0 0.0 1.0 7 14
+ 1.3896 0 1 tcp 1040 ------- 0 0.0 1.0 8 15
v 1.4299999999999999 eval {set sim_annotation {Send Packet_7,8,9,10,11,12,13,14 : Increase window size to 8}}
r 1.4312 1 0 ack 40 ------- 0 1.0 0.0 4 11
+ 1.4312 0 1 tcp 1040 ------- 0 0.0 1.0 9 16
+ 1.4312 0 1 tcp 1040 ------- 0 0.0 1.0 10 17
- 1.4312 0 1 tcp 1040 ------- 0 0.0 1.0 8 15
r 1.4728 1 0 ack 40 ------- 0 1.0 0.0 5 12
+ 1.4728 0 1 tcp 1040 ------- 0 0.0 1.0 11 18
+ 1.4728 0 1 tcp 1040 ------- 0 0.0 1.0 12 19
- 1.4728 0 1 tcp 1040 ------- 0 0.0 1.0 9 16
r 1.5144 1 0 ack 40 ------- 0 1.0 0.0 6 13
+ 1.5144 0 1 tcp 1040 ------- 0 0.0 1.0 13 20
+ 1.5144 0 1 tcp 1040 ------- 0 0.0 1.0 14 21
- 1.5144 0 1 tcp 1040 ------- 0 0.0 1.0 10 17
- 1.556 0 1 tcp 1040 ------- 0 0.0 1.0 11 18
- 1.5976 0 1 tcp 1040 ------- 0 0.0 1.0 12 19
r 1.6312 0 1 tcp 1040 ------- 0 0.0 1.0 7 14
+ 1.6312 1 0 ack 40 ------- 0 1.0 0.0 7 22
- 1.6312 1 0 ack 40 ------- 0 1.0 0.0 7 22
- 1.6392 0 1 tcp 1040 ------- 0 0.0 1.0 13 20
v 1.6699999999999999 eval {set sim_annotation {Receive Ack_7,8,9,10,11,12,13,14}}
r 1.6728 0 1 tcp 1040 ------- 0 0.0 1.0 8 15
+ 1.6728 1 0 ack 40 ------- 0 1.0 0.0 8 23
- 1.6728 1 0 ack 40 ------- 0 1.0 0.0 8 23
- 1.6808 0 1 tcp 1040 ------- 0 0.0 1.0 14 21
r 1.7144 0 1 tcp 1040 ------- 0 0.0 1.0 9 16
+ 1.7144 1 0 ack 40 ------- 0 1.0 0.0 9 24
- 1.7144 1 0 ack 40 ------- 0 1.0 0.0 9 24
r 1.756 0 1 tcp 1040 ------- 0 0.0 1.0 10 17
+ 1.756 1 0 ack 40 ------- 0 1.0 0.0 10 25
- 1.756 1 0 ack 40 ------- 0 1.0 0.0 10 25
r 1.7976 0 1 tcp 1040 ------- 0 0.0 1.0 11 18
+ 1.7976 1 0 ack 40 ------- 0 1.0 0.0 11 26
- 1.7976 1 0 ack 40 ------- 0 1.0 0.0 11 26
r 1.8328 1 0 ack 40 ------- 0 1.0 0.0 7 22
+ 1.8328 0 1 tcp 1040 ------- 0 0.0 1.0 15 27
- 1.8328 0 1 tcp 1040 ------- 0 0.0 1.0 15 27
r 1.8392 0 1 tcp 1040 ------- 0 0.0 1.0 12 19
+ 1.8392 1 0 ack 40 ------- 0 1.0 0.0 12 28
- 1.8392 1 0 ack 40 ------- 0 1.0 0.0 12 28
r 1.8744 1 0 ack 40 ------- 0 1.0 0.0 8 23
+ 1.8744 0 1 tcp 1040 ------- 0 0.0 1.0 16 29
d 1.8744 0 1 tcp 1040 ------- 0 0.0 1.0 16 29
v 1.8799999999999999 eval {set sim_annotation {Send Packet_15}}
r 1.8808 0 1 tcp 1040 ------- 0 0.0 1.0 13 20
+ 1.8808 1 0 ack 40 ------- 0 1.0 0.0 13 30
- 1.8808 1 0 ack 40 ------- 0 1.0 0.0 13 30
r 1.916 1 0 ack 40 ------- 0 1.0 0.0 9 24
+ 1.916 0 1 tcp 1040 ------- 0 0.0 1.0 17 31
- 1.916 0 1 tcp 1040 ------- 0 0.0 1.0 17 31
v 1.9199999999999999 eval {set sim_annotation {Packet_16 is lost}}
r 1.9224 0 1 tcp 1040 ------- 0 0.0 1.0 14 21
+ 1.9224 1 0 ack 40 ------- 0 1.0 0.0 14 32
- 1.9224 1 0 ack 40 ------- 0 1.0 0.0 14 32
r 1.9576 1 0 ack 40 ------- 0 1.0 0.0 10 25
+ 1.9576 0 1 tcp 1040 ------- 0 0.0 1.0 18 33
- 1.9576 0 1 tcp 1040 ------- 0 0.0 1.0 18 33
v 1.97 eval {set sim_annotation {Send Packet_17,18,19,20,21,22 : Keep maximum window size,8}}
r 1.9992 1 0 ack 40 ------- 0 1.0 0.0 11 26
+ 1.9992 0 1 tcp 1040 ------- 0 0.0 1.0 19 34
- 1.9992 0 1 tcp 1040 ------- 0 0.0 1.0 19 34
r 2.0408 1 0 ack 40 ------- 0 1.0 0.0 12 28
+ 2.0408 0 1 tcp 1040 ------- 0 0.0 1.0 20 35
- 2.0408 0 1 tcp 1040 ------- 0 0.0 1.0 20 35
r 2.0744 0 1 tcp 1040 ------- 0 0.0 1.0 15 27
+ 2.0744 1 0 ack 40 ------- 0 1.0 0.0 15 36
- 2.0744 1 0 ack 40 ------- 0 1.0 0.0 15 36
r 2.0824 1 0 ack 40 ------- 0 1.0 0.0 13 30
+ 2.0824 0 1 tcp 1040 ------- 0 0.0 1.0 21 37
- 2.0824 0 1 tcp 1040 ------- 0 0.0 1.0 21 37
v 2.1099999999999999 eval {set sim_annotation {Receive Ack_15s}}
r 2.124 1 0 ack 40 ------- 0 1.0 0.0 14 32
+ 2.124 0 1 tcp 1040 ------- 0 0.0 1.0 22 38
- 2.124 0 1 tcp 1040 ------- 0 0.0 1.0 22 38
r 2.1576 0 1 tcp 1040 ------- 0 0.0 1.0 17 31
+ 2.1576 1 0 ack 40 ------- 0 1.0 0.0 15 39
- 2.1576 1 0 ack 40 ------- 0 1.0 0.0 15 39
r 2.1992 0 1 tcp 1040 ------- 0 0.0 1.0 18 33
+ 2.1992 1 0 ack 40 ------- 0 1.0 0.0 15 40
- 2.1992 1 0 ack 40 ------- 0 1.0 0.0 15 40
v 2.2000000000000002 eval {set sim_annotation {Receive 6 more Ack_17to22}}
r 2.2408 0 1 tcp 1040 ------- 0 0.0 1.0 19 34
+ 2.2408 1 0 ack 40 ------- 0 1.0 0.0 15 41
- 2.2408 1 0 ack 40 ------- 0 1.0 0.0 15 41
r 2.276 1 0 ack 40 ------- 0 1.0 0.0 15 36
+ 2.276 0 1 tcp 1040 ------- 0 0.0 1.0 23 42
- 2.276 0 1 tcp 1040 ------- 0 0.0 1.0 23 42
r 2.2824 0 1 tcp 1040 ------- 0 0.0 1.0 20 35
+ 2.2824 1 0 ack 40 ------- 0 1.0 0.0 15 43
- 2.2824 1 0 ack 40 ------- 0 1.0 0.0 15 43
v 2.3199999999999998 eval {set sim_annotation {Send Packet_23 : Send only 1 packet cause of window size}}
r 2.324 0 1 tcp 1040 ------- 0 0.0 1.0 21 37
+ 2.324 1 0 ack 40 ------- 0 1.0 0.0 15 44
- 2.324 1 0 ack 40 ------- 0 1.0 0.0 15 44
r 2.3592 1 0 ack 40 ------- 0 1.0 0.0 15 39
+ 2.3592 0 1 tcp 1040 ------- 0 0.0 1.0 24 45
- 2.3592 0 1 tcp 1040 ------- 0 0.0 1.0 24 45
r 2.3656 0 1 tcp 1040 ------- 0 0.0 1.0 22 38
+ 2.3656 1 0 ack 40 ------- 0 1.0 0.0 15 46
- 2.3656 1 0 ack 40 ------- 0 1.0 0.0 15 46
r 2.4008 1 0 ack 40 ------- 0 1.0 0.0 15 40
+ 2.4008 0 1 tcp 1040 ------- 0 0.0 1.0 25 47
- 2.4008 0 1 tcp 1040 ------- 0 0.0 1.0 25 47
r 2.4424 1 0 ack 40 ------- 0 1.0 0.0 15 41
+ 2.4424 0 1 tcp 1040 ---A--- 0 0.0 1.0 16 48
- 2.4424 0 1 tcp 1040 ---A--- 0 0.0 1.0 16 48
v 2.48 eval {set sim_annotation {Re-send lost Packet_16 : Set window size to 1 (Slow Start Restart)}}
r 2.484 1 0 ack 40 ------- 0 1.0 0.0 15 43
r 2.5176 0 1 tcp 1040 ------- 0 0.0 1.0 23 42
+ 2.5176 1 0 ack 40 ------- 0 1.0 0.0 15 49
- 2.5176 1 0 ack 40 ------- 0 1.0 0.0 15 49
r 2.5256 1 0 ack 40 ------- 0 1.0 0.0 15 44
v 2.5499999999999998 eval {set sim_annotation {Receive Ack_16}}
r 2.5672 1 0 ack 40 ------- 0 1.0 0.0 15 46
r 2.6008 0 1 tcp 1040 ------- 0 0.0 1.0 24 45
+ 2.6008 1 0 ack 40 ------- 0 1.0 0.0 15 50
- 2.6008 1 0 ack 40 ------- 0 1.0 0.0 15 50
r 2.6424 0 1 tcp 1040 ------- 0 0.0 1.0 25 47
+ 2.6424 1 0 ack 40 ------- 0 1.0 0.0 15 51
- 2.6424 1 0 ack 40 ------- 0 1.0 0.0 15 51
r 2.684 0 1 tcp 1040 ---A--- 0 0.0 1.0 16 48
+ 2.684 1 0 ack 40 ------- 0 1.0 0.0 25 52
- 2.684 1 0 ack 40 ------- 0 1.0 0.0 25 52
r 2.7192 1 0 ack 40 ------- 0 1.0 0.0 15 49
v 2.7200000000000002 eval {set sim_annotation {Receive Ack_23}}
r 2.8024 1 0 ack 40 ------- 0 1.0 0.0 15 50
r 2.844 1 0 ack 40 ------- 0 1.0 0.0 15 51
r 2.8856 1 0 ack 40 ------- 0 1.0 0.0 25 52
+ 2.8856 0 1 tcp 1040 ------- 0 0.0 1.0 26 53
- 2.8856 0 1 tcp 1040 ------- 0 0.0 1.0 26 53
+ 2.8856 0 1 tcp 1040 ------- 0 0.0 1.0 27 54
v 2.9100000000000001 eval {set sim_annotation {Send Packet_24,25 : Increase window size to 2}}
- 2.9272 0 1 tcp 1040 ------- 0 0.0 1.0 27 54
v 3.1000000000000001 eval {set sim_annotation {FTP stops}}
r 3.1272 0 1 tcp 1040 ------- 0 0.0 1.0 26 53
r 3.1688 0 1 tcp 1040 ------- 0 0.0 1.0 27 54
