n -t * -s 0  -x 5 -y 5 -Z 0 -z 20  -v circle -c black
n -t * -s 1  -x 490 -y 285 -Z 0 -z 20  -v circle -c black
n -t * -s 2  -x 150 -y 240 -Z 0 -z 20  -v circle -c black
V -t * -v 1.0a5 -a 0
W -t * -x 500 -y 400
A -t * -n 1 -p 0 -o 0x7fffffff -c 30 -a 1
A -t * -h 1 -m 1073741823 -s 0
+ -t 10.000000000 -s 0 -d -1 -p tcp -e 40 -c 2 -a 0 -i 3 -k AGT 
- -t 10.000000000 -s 0 -d -1 -p tcp -e 40 -c 2 -a 0 -i 3 -k AGT
h -t 10.000000000 -s 0 -d -1 -p tcp -e 40 -c 2 -a 0 -i 3 -k AGT
n -t 10.000000 -s 0 -x 5.000000 -y 5.000000 -U 2.121320 -V 2.121320 -T 115.494108
+ -t 13.000000000 -s 0 -d -1 -p tcp -e 40 -c 2 -a 0 -i 5 -k AGT 
- -t 13.000000000 -s 0 -d -1 -p tcp -e 40 -c 2 -a 0 -i 5 -k AGT
h -t 13.000000000 -s 0 -d -1 -p tcp -e 40 -c 2 -a 0 -i 5 -k AGT
n -t 15.000000 -s 1 -x 490.000000 -y 285.000000 -U -5.000000 -V 0.000000 -T 89.000000
+ -t 19.000000000 -s 0 -d -1 -p tcp -e 40 -c 2 -a 0 -i 8 -k AGT 
- -t 19.000000000 -s 0 -d -1 -p tcp -e 40 -c 2 -a 0 -i 8 -k AGT
h -t 19.000000000 -s 0 -d -1 -p tcp -e 40 -c 2 -a 0 -i 8 -k AGT
+ -t 31.000000000 -s 0 -d -1 -p tcp -e 40 -c 2 -a 0 -i 12 -k AGT 
- -t 31.000000000 -s 0 -d -1 -p tcp -e 40 -c 2 -a 0 -i 12 -k AGT
h -t 31.000000000 -s 0 -d -1 -p tcp -e 40 -c 2 -a 0 -i 12 -k AGT
d -t 52.057863315 -s 0 -d 2 -p tcp -e 80 -c 2 -a 0 -i 3 -k IFQ
d -t 52.057863315 -s 0 -d 2 -p tcp -e 80 -c 2 -a 0 -i 5 -k IFQ
d -t 52.057863315 -s 0 -d 2 -p tcp -e 80 -c 2 -a 0 -i 8 -k RTR
d -t 52.057863315 -s 0 -d 2 -p tcp -e 80 -c 2 -a 0 -i 12 -k RTR
+ -t 55.000000000 -s 0 -d -1 -p tcp -e 40 -c 2 -a 0 -i 23 -k AGT 
- -t 55.000000000 -s 0 -d -1 -p tcp -e 40 -c 2 -a 0 -i 23 -k AGT
h -t 55.000000000 -s 0 -d -1 -p tcp -e 40 -c 2 -a 0 -i 23 -k AGT
r -t 55.007399911 -s 1 -d 1 -p tcp -e 60 -c 2 -a 0 -i 23 -k AGT
+ -t 55.007399911 -s 1 -d -1 -p ack -e 40 -c 2 -a 0 -i 24 -k AGT 
- -t 55.007399911 -s 1 -d -1 -p ack -e 40 -c 2 -a 0 -i 24 -k AGT
h -t 55.007399911 -s 1 -d -1 -p ack -e 40 -c 2 -a 0 -i 24 -k AGT
r -t 55.012110862 -s 0 -d 0 -p ack -e 60 -c 2 -a 0 -i 24 -k AGT
+ -t 55.012110862 -s 0 -d -1 -p tcp -e 1040 -c 2 -a 0 -i 25 -k AGT 
- -t 55.012110862 -s 0 -d -1 -p tcp -e 1040 -c 2 -a 0 -i 25 -k AGT
h -t 55.012110862 -s 0 -d -1 -p tcp -e 1040 -c 2 -a 0 -i 25 -k AGT
r -t 55.032641812 -s 1 -d 1 -p tcp -e 1060 -c 2 -a 0 -i 25 -k AGT
+ -t 55.032641812 -s 1 -d -1 -p ack -e 40 -c 2 -a 0 -i 26 -k AGT 
- -t 55.032641812 -s 1 -d -1 -p ack -e 40 -c 2 -a 0 -i 26 -k AGT
h -t 55.032641812 -s 1 -d -1 -p ack -e 40 -c 2 -a 0 -i 26 -k AGT
r -t 55.036972761 -s 0 -d 0 -p ack -e 60 -c 2 -a 0 -i 26 -k AGT
+ -t 55.036972761 -s 0 -d -1 -p tcp -e 1040 -c 2 -a 0 -i 27 -k AGT 
- -t 55.036972761 -s 0 -d -1 -p tcp -e 1040 -c 2 -a 0 -i 27 -k AGT
h -t 55.036972761 -s 0 -d -1 -p tcp -e 1040 -c 2 -a 0 -i 27 -k AGT
+ -t 55.036972761 -s 0 -d -1 -p tcp -e 1040 -c 2 -a 0 -i 28 -k AGT 
- -t 55.036972761 -s 0 -d -1 -p tcp -e 1040 -c 2 -a 0 -i 28 -k AGT
h -t 55.036972761 -s 0 -d -1 -p tcp -e 1040 -c 2 -a 0 -i 28 -k AGT
r -t 55.057383709 -s 1 -d 1 -p tcp -e 1060 -c 2 -a 0 -i 27 -k AGT
+ -t 55.057383709 -s 1 -d -1 -p ack -e 40 -c 2 -a 0 -i 29 -k AGT 
- -t 55.057383709 -s 1 -d -1 -p ack -e 40 -c 2 -a 0 -i 29 -k AGT
h -t 55.057383709 -s 1 -d -1 -p ack -e 40 -c 2 -a 0 -i 29 -k AGT
r -t 55.061694655 -s 0 -d 0 -p ack -e 60 -c 2 -a 0 -i 29 -k AGT
+ -t 55.061694655 -s 0 -d -1 -p tcp -e 1040 -c 2 -a 0 -i 30 -k AGT 
- -t 55.061694655 -s 0 -d -1 -p tcp -e 1040 -c 2 -a 0 -i 30 -k AGT
h -t 55.061694655 -s 0 -d -1 -p tcp -e 1040 -c 2 -a 0 -i 30 -k AGT
r -t 55.092211573 -s 1 -d 1 -p tcp -e 1060 -c 2 -a 0 -i 28 -k AGT
+ -t 55.092211573 -s 1 -d -1 -p ack -e 40 -c 2 -a 0 -i 31 -k AGT 
- -t 55.092211573 -s 1 -d -1 -p ack -e 40 -c 2 -a 0 -i 31 -k AGT
h -t 55.092211573 -s 1 -d -1 -p ack -e 40 -c 2 -a 0 -i 31 -k AGT
r -t 55.104722505 -s 1 -d 1 -p tcp -e 1060 -c 2 -a 0 -i 30 -k AGT
+ -t 55.104722505 -s 1 -d -1 -p ack -e 40 -c 2 -a 0 -i 32 -k AGT 
- -t 55.104722505 -s 1 -d -1 -p ack -e 40 -c 2 -a 0 -i 32 -k AGT
h -t 55.104722505 -s 1 -d -1 -p ack -e 40 -c 2 -a 0 -i 32 -k AGT
r -t 55.109133448 -s 0 -d 0 -p ack -e 60 -c 2 -a 0 -i 31 -k AGT
+ -t 55.109133448 -s 0 -d -1 -p tcp -e 1040 -c 2 -a 0 -i 33 -k AGT 
- -t 55.109133448 -s 0 -d -1 -p tcp -e 1040 -c 2 -a 0 -i 33 -k AGT
h -t 55.109133448 -s 0 -d -1 -p tcp -e 1040 -c 2 -a 0 -i 33 -k AGT
r -t 55.121184403 -s 0 -d 0 -p ack -e 60 -c 2 -a 0 -i 32 -k AGT
+ -t 55.121184403 -s 0 -d -1 -p tcp -e 1040 -c 2 -a 0 -i 34 -k AGT 
- -t 55.121184403 -s 0 -d -1 -p tcp -e 1040 -c 2 -a 0 -i 34 -k AGT
h -t 55.121184403 -s 0 -d -1 -p tcp -e 1040 -c 2 -a 0 -i 34 -k AGT
+ -t 55.121184403 -s 0 -d -1 -p tcp -e 1040 -c 2 -a 0 -i 35 -k AGT 
- -t 55.121184403 -s 0 -d -1 -p tcp -e 1040 -c 2 -a 0 -i 35 -k AGT
h -t 55.121184403 -s 0 -d -1 -p tcp -e 1040 -c 2 -a 0 -i 35 -k AGT
r -t 55.131190361 -s 1 -d 1 -p tcp -e 1060 -c 2 -a 0 -i 33 -k AGT
+ -t 55.131190361 -s 1 -d -1 -p ack -e 40 -c 2 -a 0 -i 36 -k AGT 
- -t 55.131190361 -s 1 -d -1 -p ack -e 40 -c 2 -a 0 -i 36 -k AGT
h -t 55.131190361 -s 1 -d -1 -p ack -e 40 -c 2 -a 0 -i 36 -k AGT
r -t 55.145557170 -s 0 -d 0 -p ack -e 60 -c 2 -a 0 -i 36 -k AGT
+ -t 55.145557170 -s 0 -d -1 -p tcp -e 1040 -c 2 -a 0 -i 37 -k AGT 
- -t 55.145557170 -s 0 -d -1 -p tcp -e 1040 -c 2 -a 0 -i 37 -k AGT
h -t 55.145557170 -s 0 -d -1 -p tcp -e 1040 -c 2 -a 0 -i 37 -k AGT
r -t 55.166028110 -s 1 -d 1 -p tcp -e 1060 -c 2 -a 0 -i 34 -k AGT
+ -t 55.166028110 -s 1 -d -1 -p ack -e 40 -c 2 -a 0 -i 38 -k AGT 
- -t 55.166028110 -s 1 -d -1 -p ack -e 40 -c 2 -a 0 -i 38 -k AGT
h -t 55.166028110 -s 1 -d -1 -p ack -e 40 -c 2 -a 0 -i 38 -k AGT
r -t 55.188554901 -s 1 -d 1 -p tcp -e 1060 -c 2 -a 0 -i 35 -k AGT
+ -t 55.188554901 -s 1 -d -1 -p ack -e 40 -c 2 -a 0 -i 39 -k AGT 
- -t 55.188554901 -s 1 -d -1 -p ack -e 40 -c 2 -a 0 -i 39 -k AGT
h -t 55.188554901 -s 1 -d -1 -p ack -e 40 -c 2 -a 0 -i 39 -k AGT
r -t 55.190540864 -s 0 -d 0 -p ack -e 60 -c 2 -a 0 -i 38 -k AGT
+ -t 55.190540864 -s 0 -d -1 -p tcp -e 1040 -c 2 -a 0 -i 40 -k AGT 
- -t 55.190540864 -s 0 -d -1 -p tcp -e 1040 -c 2 -a 0 -i 40 -k AGT
h -t 55.190540864 -s 0 -d -1 -p tcp -e 1040 -c 2 -a 0 -i 40 -k AGT
r -t 55.200526817 -s 1 -d 1 -p tcp -e 1060 -c 2 -a 0 -i 37 -k AGT
+ -t 55.200526817 -s 1 -d -1 -p ack -e 40 -c 2 -a 0 -i 41 -k AGT 
- -t 55.200526817 -s 1 -d -1 -p ack -e 40 -c 2 -a 0 -i 41 -k AGT
h -t 55.200526817 -s 1 -d -1 -p ack -e 40 -c 2 -a 0 -i 41 -k AGT
r -t 55.215053619 -s 0 -d 0 -p ack -e 60 -c 2 -a 0 -i 39 -k AGT
+ -t 55.215053619 -s 0 -d -1 -p tcp -e 1040 -c 2 -a 0 -i 42 -k AGT 
- -t 55.215053619 -s 0 -d -1 -p tcp -e 1040 -c 2 -a 0 -i 42 -k AGT
h -t 55.215053619 -s 0 -d -1 -p tcp -e 1040 -c 2 -a 0 -i 42 -k AGT
+ -t 55.215053619 -s 0 -d -1 -p tcp -e 1040 -c 2 -a 0 -i 43 -k AGT 
- -t 55.215053619 -s 0 -d -1 -p tcp -e 1040 -c 2 -a 0 -i 43 -k AGT
h -t 55.215053619 -s 0 -d -1 -p tcp -e 1040 -c 2 -a 0 -i 43 -k AGT
r -t 55.235624553 -s 1 -d 1 -p tcp -e 1060 -c 2 -a 0 -i 40 -k AGT
+ -t 55.235624553 -s 1 -d -1 -p ack -e 40 -c 2 -a 0 -i 44 -k AGT 
- -t 55.235624553 -s 1 -d -1 -p ack -e 40 -c 2 -a 0 -i 44 -k AGT
h -t 55.235624553 -s 1 -d -1 -p ack -e 40 -c 2 -a 0 -i 44 -k AGT
r -t 55.260127179 -s 1 -d 1 -p tcp -e 1060 -c 2 -a 0 -i 42 -k AGT
+ -t 55.260127179 -s 1 -d -1 -p ack -e 40 -c 2 -a 0 -i 45 -k AGT 
- -t 55.260127179 -s 1 -d -1 -p ack -e 40 -c 2 -a 0 -i 45 -k AGT
h -t 55.260127179 -s 1 -d -1 -p ack -e 40 -c 2 -a 0 -i 45 -k AGT
r -t 55.262213139 -s 0 -d 0 -p ack -e 60 -c 2 -a 0 -i 41 -k AGT
+ -t 55.262213139 -s 0 -d -1 -p tcp -e 1040 -c 2 -a 0 -i 46 -k AGT 
- -t 55.262213139 -s 0 -d -1 -p tcp -e 1040 -c 2 -a 0 -i 46 -k AGT
h -t 55.262213139 -s 0 -d -1 -p tcp -e 1040 -c 2 -a 0 -i 46 -k AGT
r -t 55.272199088 -s 1 -d 1 -p tcp -e 1060 -c 2 -a 0 -i 43 -k AGT
+ -t 55.272199088 -s 1 -d -1 -p ack -e 40 -c 2 -a 0 -i 47 -k AGT 
- -t 55.272199088 -s 1 -d -1 -p ack -e 40 -c 2 -a 0 -i 47 -k AGT
h -t 55.272199088 -s 1 -d -1 -p ack -e 40 -c 2 -a 0 -i 47 -k AGT
r -t 55.276570019 -s 0 -d 0 -p ack -e 60 -c 2 -a 0 -i 44 -k AGT
+ -t 55.276570019 -s 0 -d -1 -p tcp -e 1040 -c 2 -a 0 -i 48 -k AGT 
- -t 55.276570019 -s 0 -d -1 -p tcp -e 1040 -c 2 -a 0 -i 48 -k AGT
h -t 55.276570019 -s 0 -d -1 -p tcp -e 1040 -c 2 -a 0 -i 48 -k AGT
r -t 55.298786929 -s 0 -d 0 -p ack -e 60 -c 2 -a 0 -i 45 -k AGT
+ -t 55.298786929 -s 0 -d -1 -p tcp -e 1040 -c 2 -a 0 -i 49 -k AGT 
- -t 55.298786929 -s 0 -d -1 -p tcp -e 1040 -c 2 -a 0 -i 49 -k AGT
h -t 55.298786929 -s 0 -d -1 -p tcp -e 1040 -c 2 -a 0 -i 49 -k AGT
r -t 55.308932876 -s 1 -d 1 -p tcp -e 1060 -c 2 -a 0 -i 46 -k AGT
+ -t 55.308932876 -s 1 -d -1 -p ack -e 40 -c 2 -a 0 -i 50 -k AGT 
- -t 55.308932876 -s 1 -d -1 -p ack -e 40 -c 2 -a 0 -i 50 -k AGT
h -t 55.308932876 -s 1 -d -1 -p ack -e 40 -c 2 -a 0 -i 50 -k AGT
r -t 55.331419649 -s 1 -d 1 -p tcp -e 1060 -c 2 -a 0 -i 48 -k AGT
+ -t 55.331419649 -s 1 -d -1 -p ack -e 40 -c 2 -a 0 -i 51 -k AGT 
- -t 55.331419649 -s 1 -d -1 -p ack -e 40 -c 2 -a 0 -i 51 -k AGT
h -t 55.331419649 -s 1 -d -1 -p ack -e 40 -c 2 -a 0 -i 51 -k AGT
r -t 55.335950576 -s 0 -d 0 -p ack -e 60 -c 2 -a 0 -i 47 -k AGT
+ -t 55.335950576 -s 0 -d -1 -p tcp -e 1040 -c 2 -a 0 -i 52 -k AGT 
- -t 55.335950576 -s 0 -d -1 -p tcp -e 1040 -c 2 -a 0 -i 52 -k AGT
h -t 55.335950576 -s 0 -d -1 -p tcp -e 1040 -c 2 -a 0 -i 52 -k AGT
r -t 55.358417339 -s 1 -d 1 -p tcp -e 1060 -c 2 -a 0 -i 49 -k AGT
+ -t 55.358417339 -s 1 -d -1 -p ack -e 40 -c 2 -a 0 -i 53 -k AGT 
- -t 55.358417339 -s 1 -d -1 -p ack -e 40 -c 2 -a 0 -i 53 -k AGT
h -t 55.358417339 -s 1 -d -1 -p ack -e 40 -c 2 -a 0 -i 53 -k AGT
r -t 55.362968264 -s 0 -d 0 -p ack -e 60 -c 2 -a 0 -i 50 -k AGT
+ -t 55.362968264 -s 0 -d -1 -p tcp -e 1040 -c 2 -a 0 -i 54 -k AGT 
- -t 55.362968264 -s 0 -d -1 -p tcp -e 1040 -c 2 -a 0 -i 54 -k AGT
h -t 55.362968264 -s 0 -d -1 -p tcp -e 1040 -c 2 -a 0 -i 54 -k AGT
+ -t 55.362968264 -s 0 -d -1 -p tcp -e 1040 -c 2 -a 0 -i 55 -k AGT 
- -t 55.362968264 -s 0 -d -1 -p tcp -e 1040 -c 2 -a 0 -i 55 -k AGT
h -t 55.362968264 -s 0 -d -1 -p tcp -e 1040 -c 2 -a 0 -i 55 -k AGT
r -t 55.373274207 -s 1 -d 1 -p tcp -e 1060 -c 2 -a 0 -i 52 -k AGT
+ -t 55.373274207 -s 1 -d -1 -p ack -e 40 -c 2 -a 0 -i 56 -k AGT 
- -t 55.373274207 -s 1 -d -1 -p ack -e 40 -c 2 -a 0 -i 56 -k AGT
h -t 55.373274207 -s 1 -d -1 -p ack -e 40 -c 2 -a 0 -i 56 -k AGT
r -t 55.375300162 -s 0 -d 0 -p ack -e 60 -c 2 -a 0 -i 51 -k AGT
+ -t 55.375300162 -s 0 -d -1 -p tcp -e 1040 -c 2 -a 0 -i 57 -k AGT 
- -t 55.375300162 -s 0 -d -1 -p tcp -e 1040 -c 2 -a 0 -i 57 -k AGT
h -t 55.375300162 -s 0 -d -1 -p tcp -e 1040 -c 2 -a 0 -i 57 -k AGT
r -t 55.389806938 -s 0 -d 0 -p ack -e 60 -c 2 -a 0 -i 53 -k AGT
+ -t 55.389806938 -s 0 -d -1 -p tcp -e 1040 -c 2 -a 0 -i 58 -k AGT 
- -t 55.389806938 -s 0 -d -1 -p tcp -e 1040 -c 2 -a 0 -i 58 -k AGT
h -t 55.389806938 -s 0 -d -1 -p tcp -e 1040 -c 2 -a 0 -i 58 -k AGT
r -t 55.430369778 -s 1 -d 1 -p tcp -e 1060 -c 2 -a 0 -i 54 -k AGT
+ -t 55.430369778 -s 1 -d -1 -p ack -e 40 -c 2 -a 0 -i 59 -k AGT 
- -t 55.430369778 -s 1 -d -1 -p ack -e 40 -c 2 -a 0 -i 59 -k AGT
h -t 55.430369778 -s 1 -d -1 -p ack -e 40 -c 2 -a 0 -i 59 -k AGT
r -t 55.432415731 -s 0 -d 0 -p ack -e 60 -c 2 -a 0 -i 56 -k AGT
+ -t 55.432415731 -s 0 -d -1 -p tcp -e 1040 -c 2 -a 0 -i 60 -k AGT 
- -t 55.432415731 -s 0 -d -1 -p tcp -e 1040 -c 2 -a 0 -i 60 -k AGT
h -t 55.432415731 -s 0 -d -1 -p tcp -e 1040 -c 2 -a 0 -i 60 -k AGT
r -t 55.452706649 -s 1 -d 1 -p tcp -e 1060 -c 2 -a 0 -i 55 -k AGT
+ -t 55.452706649 -s 1 -d -1 -p ack -e 40 -c 2 -a 0 -i 61 -k AGT 
- -t 55.452706649 -s 1 -d -1 -p ack -e 40 -c 2 -a 0 -i 61 -k AGT
h -t 55.452706649 -s 1 -d -1 -p ack -e 40 -c 2 -a 0 -i 61 -k AGT
r -t 55.462812581 -s 1 -d 1 -p tcp -e 1060 -c 2 -a 0 -i 57 -k AGT
+ -t 55.462812581 -s 1 -d -1 -p ack -e 40 -c 2 -a 0 -i 62 -k AGT 
- -t 55.462812581 -s 1 -d -1 -p ack -e 40 -c 2 -a 0 -i 62 -k AGT
h -t 55.462812581 -s 1 -d -1 -p ack -e 40 -c 2 -a 0 -i 62 -k AGT
r -t 55.479235340 -s 1 -d 1 -p tcp -e 1060 -c 2 -a 0 -i 58 -k AGT
+ -t 55.479235340 -s 1 -d -1 -p ack -e 40 -c 2 -a 0 -i 63 -k AGT 
- -t 55.479235340 -s 1 -d -1 -p ack -e 40 -c 2 -a 0 -i 63 -k AGT
h -t 55.479235340 -s 1 -d -1 -p ack -e 40 -c 2 -a 0 -i 63 -k AGT
r -t 55.489681270 -s 1 -d 1 -p tcp -e 1060 -c 2 -a 0 -i 60 -k AGT
+ -t 55.489681270 -s 1 -d -1 -p ack -e 40 -c 2 -a 0 -i 64 -k AGT 
- -t 55.489681270 -s 1 -d -1 -p ack -e 40 -c 2 -a 0 -i 64 -k AGT
h -t 55.489681270 -s 1 -d -1 -p ack -e 40 -c 2 -a 0 -i 64 -k AGT
r -t 55.495998115 -s 0 -d 0 -p ack -e 60 -c 2 -a 0 -i 59 -k AGT
+ -t 55.495998115 -s 0 -d -1 -p tcp -e 1040 -c 2 -a 0 -i 65 -k AGT 
- -t 55.495998115 -s 0 -d -1 -p tcp -e 1040 -c 2 -a 0 -i 65 -k AGT
h -t 55.495998115 -s 0 -d -1 -p tcp -e 1040 -c 2 -a 0 -i 65 -k AGT
r -t 55.508209049 -s 0 -d 0 -p ack -e 60 -c 2 -a 0 -i 61 -k AGT
+ -t 55.508209049 -s 0 -d -1 -p tcp -e 1040 -c 2 -a 0 -i 66 -k AGT 
- -t 55.508209049 -s 0 -d -1 -p tcp -e 1040 -c 2 -a 0 -i 66 -k AGT
h -t 55.508209049 -s 0 -d -1 -p tcp -e 1040 -c 2 -a 0 -i 66 -k AGT
+ -t 55.508209049 -s 0 -d -1 -p tcp -e 1040 -c 2 -a 0 -i 67 -k AGT 
- -t 55.508209049 -s 0 -d -1 -p tcp -e 1040 -c 2 -a 0 -i 67 -k AGT
h -t 55.508209049 -s 0 -d -1 -p tcp -e 1040 -c 2 -a 0 -i 67 -k AGT
r -t 55.510235005 -s 0 -d 0 -p ack -e 60 -c 2 -a 0 -i 62 -k AGT
+ -t 55.510235005 -s 0 -d -1 -p tcp -e 1040 -c 2 -a 0 -i 68 -k AGT 
- -t 55.510235005 -s 0 -d -1 -p tcp -e 1040 -c 2 -a 0 -i 68 -k AGT
h -t 55.510235005 -s 0 -d -1 -p tcp -e 1040 -c 2 -a 0 -i 68 -k AGT
r -t 55.512320961 -s 0 -d 0 -p ack -e 60 -c 2 -a 0 -i 63 -k AGT
+ -t 55.512320961 -s 0 -d -1 -p tcp -e 1040 -c 2 -a 0 -i 69 -k AGT 
- -t 55.512320961 -s 0 -d -1 -p tcp -e 1040 -c 2 -a 0 -i 69 -k AGT
h -t 55.512320961 -s 0 -d -1 -p tcp -e 1040 -c 2 -a 0 -i 69 -k AGT
r -t 55.534757849 -s 0 -d 0 -p ack -e 60 -c 2 -a 0 -i 64 -k AGT
+ -t 55.534757849 -s 0 -d -1 -p tcp -e 1040 -c 2 -a 0 -i 70 -k AGT 
- -t 55.534757849 -s 0 -d -1 -p tcp -e 1040 -c 2 -a 0 -i 70 -k AGT
h -t 55.534757849 -s 0 -d -1 -p tcp -e 1040 -c 2 -a 0 -i 70 -k AGT
r -t 55.545063783 -s 1 -d 1 -p tcp -e 1060 -c 2 -a 0 -i 65 -k AGT
+ -t 55.545063783 -s 1 -d -1 -p ack -e 40 -c 2 -a 0 -i 71 -k AGT 
- -t 55.545063783 -s 1 -d -1 -p ack -e 40 -c 2 -a 0 -i 71 -k AGT
h -t 55.545063783 -s 1 -d -1 -p ack -e 40 -c 2 -a 0 -i 71 -k AGT
r -t 55.567330526 -s 1 -d 1 -p tcp -e 1060 -c 2 -a 0 -i 66 -k AGT
+ -t 55.567330526 -s 1 -d -1 -p ack -e 40 -c 2 -a 0 -i 72 -k AGT 
- -t 55.567330526 -s 1 -d -1 -p ack -e 40 -c 2 -a 0 -i 72 -k AGT
h -t 55.567330526 -s 1 -d -1 -p ack -e 40 -c 2 -a 0 -i 72 -k AGT
r -t 55.579681413 -s 1 -d 1 -p tcp -e 1060 -c 2 -a 0 -i 67 -k AGT
+ -t 55.579681413 -s 1 -d -1 -p ack -e 40 -c 2 -a 0 -i 73 -k AGT 
- -t 55.579681413 -s 1 -d -1 -p ack -e 40 -c 2 -a 0 -i 73 -k AGT
h -t 55.579681413 -s 1 -d -1 -p ack -e 40 -c 2 -a 0 -i 73 -k AGT
r -t 55.584012321 -s 0 -d 0 -p ack -e 60 -c 2 -a 0 -i 71 -k AGT
+ -t 55.584012321 -s 0 -d -1 -p tcp -e 1040 -c 2 -a 0 -i 74 -k AGT 
- -t 55.584012321 -s 0 -d -1 -p tcp -e 1040 -c 2 -a 0 -i 74 -k AGT
h -t 55.584012321 -s 0 -d -1 -p tcp -e 1040 -c 2 -a 0 -i 74 -k AGT
r -t 55.604103228 -s 1 -d 1 -p tcp -e 1060 -c 2 -a 0 -i 68 -k AGT
+ -t 55.604103228 -s 1 -d -1 -p ack -e 40 -c 2 -a 0 -i 75 -k AGT 
- -t 55.604103228 -s 1 -d -1 -p ack -e 40 -c 2 -a 0 -i 75 -k AGT
h -t 55.604103228 -s 1 -d -1 -p ack -e 40 -c 2 -a 0 -i 75 -k AGT
r -t 55.618569986 -s 0 -d 0 -p ack -e 60 -c 2 -a 0 -i 72 -k AGT
+ -t 55.618569986 -s 0 -d -1 -p tcp -e 1040 -c 2 -a 0 -i 76 -k AGT 
- -t 55.618569986 -s 0 -d -1 -p tcp -e 1040 -c 2 -a 0 -i 76 -k AGT
h -t 55.618569986 -s 0 -d -1 -p tcp -e 1040 -c 2 -a 0 -i 76 -k AGT
r -t 55.620555938 -s 0 -d 0 -p ack -e 60 -c 2 -a 0 -i 73 -k AGT
+ -t 55.620555938 -s 0 -d -1 -p tcp -e 1040 -c 2 -a 0 -i 77 -k AGT 
- -t 55.620555938 -s 0 -d -1 -p tcp -e 1040 -c 2 -a 0 -i 77 -k AGT
h -t 55.620555938 -s 0 -d -1 -p tcp -e 1040 -c 2 -a 0 -i 77 -k AGT
+ -t 55.620555938 -s 0 -d -1 -p tcp -e 1040 -c 2 -a 0 -i 78 -k AGT 
- -t 55.620555938 -s 0 -d -1 -p tcp -e 1040 -c 2 -a 0 -i 78 -k AGT
h -t 55.620555938 -s 0 -d -1 -p tcp -e 1040 -c 2 -a 0 -i 78 -k AGT
r -t 55.640966842 -s 1 -d 1 -p tcp -e 1060 -c 2 -a 0 -i 69 -k AGT
+ -t 55.640966842 -s 1 -d -1 -p ack -e 40 -c 2 -a 0 -i 79 -k AGT 
- -t 55.640966842 -s 1 -d -1 -p ack -e 40 -c 2 -a 0 -i 79 -k AGT
h -t 55.640966842 -s 1 -d -1 -p ack -e 40 -c 2 -a 0 -i 79 -k AGT
r -t 55.665339547 -s 0 -d 0 -p ack -e 60 -c 2 -a 0 -i 75 -k AGT
+ -t 55.665339547 -s 0 -d -1 -p tcp -e 1040 -c 2 -a 0 -i 80 -k AGT 
- -t 55.665339547 -s 0 -d -1 -p tcp -e 1040 -c 2 -a 0 -i 80 -k AGT
h -t 55.665339547 -s 0 -d -1 -p tcp -e 1040 -c 2 -a 0 -i 80 -k AGT
r -t 55.685710448 -s 1 -d 1 -p tcp -e 1060 -c 2 -a 0 -i 70 -k AGT
+ -t 55.685710448 -s 1 -d -1 -p ack -e 40 -c 2 -a 0 -i 81 -k AGT 
- -t 55.685710448 -s 1 -d -1 -p ack -e 40 -c 2 -a 0 -i 81 -k AGT
h -t 55.685710448 -s 1 -d -1 -p ack -e 40 -c 2 -a 0 -i 81 -k AGT
r -t 55.696276365 -s 1 -d 1 -p tcp -e 1060 -c 2 -a 0 -i 74 -k AGT
+ -t 55.696276365 -s 1 -d -1 -p ack -e 40 -c 2 -a 0 -i 82 -k AGT 
- -t 55.696276365 -s 1 -d -1 -p ack -e 40 -c 2 -a 0 -i 82 -k AGT
h -t 55.696276365 -s 1 -d -1 -p ack -e 40 -c 2 -a 0 -i 82 -k AGT
r -t 55.702413181 -s 0 -d 0 -p ack -e 60 -c 2 -a 0 -i 79 -k AGT
+ -t 55.702413181 -s 0 -d -1 -p tcp -e 1040 -c 2 -a 0 -i 83 -k AGT 
- -t 55.702413181 -s 0 -d -1 -p tcp -e 1040 -c 2 -a 0 -i 83 -k AGT
h -t 55.702413181 -s 0 -d -1 -p tcp -e 1040 -c 2 -a 0 -i 83 -k AGT
r -t 55.722624079 -s 1 -d 1 -p tcp -e 1060 -c 2 -a 0 -i 76 -k AGT
+ -t 55.722624079 -s 1 -d -1 -p ack -e 40 -c 2 -a 0 -i 84 -k AGT 
- -t 55.722624079 -s 1 -d -1 -p ack -e 40 -c 2 -a 0 -i 84 -k AGT
h -t 55.722624079 -s 1 -d -1 -p ack -e 40 -c 2 -a 0 -i 84 -k AGT
r -t 55.735194951 -s 1 -d 1 -p tcp -e 1060 -c 2 -a 0 -i 77 -k AGT
+ -t 55.735194951 -s 1 -d -1 -p ack -e 40 -c 2 -a 0 -i 85 -k AGT 
- -t 55.735194951 -s 1 -d -1 -p ack -e 40 -c 2 -a 0 -i 85 -k AGT
h -t 55.735194951 -s 1 -d -1 -p ack -e 40 -c 2 -a 0 -i 85 -k AGT
r -t 55.747325822 -s 1 -d 1 -p tcp -e 1060 -c 2 -a 0 -i 78 -k AGT
+ -t 55.747325822 -s 1 -d -1 -p ack -e 40 -c 2 -a 0 -i 86 -k AGT 
- -t 55.747325822 -s 1 -d -1 -p ack -e 40 -c 2 -a 0 -i 86 -k AGT
h -t 55.747325822 -s 1 -d -1 -p ack -e 40 -c 2 -a 0 -i 86 -k AGT
r -t 55.761792565 -s 0 -d 0 -p ack -e 60 -c 2 -a 0 -i 81 -k AGT
+ -t 55.761792565 -s 0 -d -1 -p tcp -e 1040 -c 2 -a 0 -i 87 -k AGT 
- -t 55.761792565 -s 0 -d -1 -p tcp -e 1040 -c 2 -a 0 -i 87 -k AGT
h -t 55.761792565 -s 0 -d -1 -p tcp -e 1040 -c 2 -a 0 -i 87 -k AGT
r -t 55.764258512 -s 0 -d 0 -p ack -e 60 -c 2 -a 0 -i 82 -k AGT
+ -t 55.764258512 -s 0 -d -1 -p tcp -e 1040 -c 2 -a 0 -i 88 -k AGT 
- -t 55.764258512 -s 0 -d -1 -p tcp -e 1040 -c 2 -a 0 -i 88 -k AGT
h -t 55.764258512 -s 0 -d -1 -p tcp -e 1040 -c 2 -a 0 -i 88 -k AGT
r -t 55.784489406 -s 1 -d 1 -p tcp -e 1060 -c 2 -a 0 -i 80 -k AGT
+ -t 55.784489406 -s 1 -d -1 -p ack -e 40 -c 2 -a 0 -i 89 -k AGT 
- -t 55.784489406 -s 1 -d -1 -p ack -e 40 -c 2 -a 0 -i 89 -k AGT
h -t 55.784489406 -s 1 -d -1 -p ack -e 40 -c 2 -a 0 -i 89 -k AGT
r -t 55.799076144 -s 0 -d 0 -p ack -e 60 -c 2 -a 0 -i 84 -k AGT
+ -t 55.799076144 -s 0 -d -1 -p tcp -e 1040 -c 2 -a 0 -i 90 -k AGT 
- -t 55.799076144 -s 0 -d -1 -p tcp -e 1040 -c 2 -a 0 -i 90 -k AGT
h -t 55.799076144 -s 0 -d -1 -p tcp -e 1040 -c 2 -a 0 -i 90 -k AGT
r -t 55.811507062 -s 0 -d 0 -p ack -e 60 -c 2 -a 0 -i 85 -k AGT
+ -t 55.811507062 -s 0 -d -1 -p tcp -e 1040 -c 2 -a 0 -i 91 -k AGT 
- -t 55.811507062 -s 0 -d -1 -p tcp -e 1040 -c 2 -a 0 -i 91 -k AGT
h -t 55.811507062 -s 0 -d -1 -p tcp -e 1040 -c 2 -a 0 -i 91 -k AGT
r -t 55.823957980 -s 0 -d 0 -p ack -e 60 -c 2 -a 0 -i 86 -k AGT
+ -t 55.823957980 -s 0 -d -1 -p tcp -e 1040 -c 2 -a 0 -i 92 -k AGT 
- -t 55.823957980 -s 0 -d -1 -p tcp -e 1040 -c 2 -a 0 -i 92 -k AGT
h -t 55.823957980 -s 0 -d -1 -p tcp -e 1040 -c 2 -a 0 -i 92 -k AGT
r -t 55.844488869 -s 1 -d 1 -p tcp -e 1060 -c 2 -a 0 -i 83 -k AGT
+ -t 55.844488869 -s 1 -d -1 -p ack -e 40 -c 2 -a 0 -i 93 -k AGT 
- -t 55.844488869 -s 1 -d -1 -p ack -e 40 -c 2 -a 0 -i 93 -k AGT
h -t 55.844488869 -s 1 -d -1 -p ack -e 40 -c 2 -a 0 -i 93 -k AGT
r -t 55.854914776 -s 1 -d 1 -p tcp -e 1060 -c 2 -a 0 -i 87 -k AGT
+ -t 55.854914776 -s 1 -d -1 -p ack -e 40 -c 2 -a 0 -i 94 -k AGT 
- -t 55.854914776 -s 1 -d -1 -p ack -e 40 -c 2 -a 0 -i 94 -k AGT
h -t 55.854914776 -s 1 -d -1 -p ack -e 40 -c 2 -a 0 -i 94 -k AGT
r -t 55.861111570 -s 0 -d 0 -p ack -e 60 -c 2 -a 0 -i 89 -k AGT
+ -t 55.861111570 -s 0 -d -1 -p tcp -e 1040 -c 2 -a 0 -i 95 -k AGT 
- -t 55.861111570 -s 0 -d -1 -p tcp -e 1040 -c 2 -a 0 -i 95 -k AGT
h -t 55.861111570 -s 0 -d -1 -p tcp -e 1040 -c 2 -a 0 -i 95 -k AGT
+ -t 55.861111570 -s 0 -d -1 -p tcp -e 1040 -c 2 -a 0 -i 96 -k AGT 
- -t 55.861111570 -s 0 -d -1 -p tcp -e 1040 -c 2 -a 0 -i 96 -k AGT
h -t 55.861111570 -s 0 -d -1 -p tcp -e 1040 -c 2 -a 0 -i 96 -k AGT
r -t 55.871097485 -s 1 -d 1 -p tcp -e 1060 -c 2 -a 0 -i 88 -k AGT
+ -t 55.871097485 -s 1 -d -1 -p ack -e 40 -c 2 -a 0 -i 97 -k AGT 
- -t 55.871097485 -s 1 -d -1 -p ack -e 40 -c 2 -a 0 -i 97 -k AGT
h -t 55.871097485 -s 1 -d -1 -p ack -e 40 -c 2 -a 0 -i 97 -k AGT
r -t 55.883568343 -s 1 -d 1 -p tcp -e 1060 -c 2 -a 0 -i 90 -k AGT
+ -t 55.883568343 -s 1 -d -1 -p ack -e 40 -c 2 -a 0 -i 98 -k AGT 
- -t 55.883568343 -s 1 -d -1 -p ack -e 40 -c 2 -a 0 -i 98 -k AGT
h -t 55.883568343 -s 1 -d -1 -p ack -e 40 -c 2 -a 0 -i 98 -k AGT
r -t 55.893574248 -s 1 -d 1 -p tcp -e 1060 -c 2 -a 0 -i 91 -k AGT
+ -t 55.893574248 -s 1 -d -1 -p ack -e 40 -c 2 -a 0 -i 99 -k AGT 
- -t 55.893574248 -s 1 -d -1 -p ack -e 40 -c 2 -a 0 -i 99 -k AGT
h -t 55.893574248 -s 1 -d -1 -p ack -e 40 -c 2 -a 0 -i 99 -k AGT
r -t 55.905705104 -s 1 -d 1 -p tcp -e 1060 -c 2 -a 0 -i 92 -k AGT
+ -t 55.905705104 -s 1 -d -1 -p ack -e 40 -c 2 -a 0 -i 100 -k AGT 
- -t 55.905705104 -s 1 -d -1 -p ack -e 40 -c 2 -a 0 -i 100 -k AGT
h -t 55.905705104 -s 1 -d -1 -p ack -e 40 -c 2 -a 0 -i 100 -k AGT
r -t 55.912021891 -s 0 -d 0 -p ack -e 60 -c 2 -a 0 -i 93 -k AGT
+ -t 55.912021891 -s 0 -d -1 -p tcp -e 1040 -c 2 -a 0 -i 101 -k AGT 
- -t 55.912021891 -s 0 -d -1 -p tcp -e 1040 -c 2 -a 0 -i 101 -k AGT
h -t 55.912021891 -s 0 -d -1 -p tcp -e 1040 -c 2 -a 0 -i 101 -k AGT
r -t 55.934198743 -s 0 -d 0 -p ack -e 60 -c 2 -a 0 -i 94 -k AGT
+ -t 55.934198743 -s 0 -d -1 -p tcp -e 1040 -c 2 -a 0 -i 102 -k AGT 
- -t 55.934198743 -s 0 -d -1 -p tcp -e 1040 -c 2 -a 0 -i 102 -k AGT
h -t 55.934198743 -s 0 -d -1 -p tcp -e 1040 -c 2 -a 0 -i 102 -k AGT
r -t 55.946409654 -s 0 -d 0 -p ack -e 60 -c 2 -a 0 -i 97 -k AGT
+ -t 55.946409654 -s 0 -d -1 -p tcp -e 1040 -c 2 -a 0 -i 103 -k AGT 
- -t 55.946409654 -s 0 -d -1 -p tcp -e 1040 -c 2 -a 0 -i 103 -k AGT
h -t 55.946409654 -s 0 -d -1 -p tcp -e 1040 -c 2 -a 0 -i 103 -k AGT
r -t 55.948735594 -s 0 -d 0 -p ack -e 60 -c 2 -a 0 -i 98 -k AGT
+ -t 55.948735594 -s 0 -d -1 -p tcp -e 1040 -c 2 -a 0 -i 104 -k AGT 
- -t 55.948735594 -s 0 -d -1 -p tcp -e 1040 -c 2 -a 0 -i 104 -k AGT
h -t 55.948735594 -s 0 -d -1 -p tcp -e 1040 -c 2 -a 0 -i 104 -k AGT
r -t 55.961106504 -s 0 -d 0 -p ack -e 60 -c 2 -a 0 -i 99 -k AGT
+ -t 55.961106504 -s 0 -d -1 -p tcp -e 1040 -c 2 -a 0 -i 105 -k AGT 
- -t 55.961106504 -s 0 -d -1 -p tcp -e 1040 -c 2 -a 0 -i 105 -k AGT
h -t 55.961106504 -s 0 -d -1 -p tcp -e 1040 -c 2 -a 0 -i 105 -k AGT
r -t 55.983503352 -s 0 -d 0 -p ack -e 60 -c 2 -a 0 -i 100 -k AGT
+ -t 55.983503352 -s 0 -d -1 -p tcp -e 1040 -c 2 -a 0 -i 106 -k AGT 
- -t 55.983503352 -s 0 -d -1 -p tcp -e 1040 -c 2 -a 0 -i 106 -k AGT
h -t 55.983503352 -s 0 -d -1 -p tcp -e 1040 -c 2 -a 0 -i 106 -k AGT
r -t 56.014020168 -s 1 -d 1 -p tcp -e 1060 -c 2 -a 0 -i 95 -k AGT
+ -t 56.014020168 -s 1 -d -1 -p ack -e 40 -c 2 -a 0 -i 107 -k AGT 
- -t 56.014020168 -s 1 -d -1 -p ack -e 40 -c 2 -a 0 -i 107 -k AGT
h -t 56.014020168 -s 1 -d -1 -p ack -e 40 -c 2 -a 0 -i 107 -k AGT
r -t 56.024066064 -s 1 -d 1 -p tcp -e 1060 -c 2 -a 0 -i 96 -k AGT
+ -t 56.024066064 -s 1 -d -1 -p ack -e 40 -c 2 -a 0 -i 108 -k AGT 
- -t 56.024066064 -s 1 -d -1 -p ack -e 40 -c 2 -a 0 -i 108 -k AGT
h -t 56.024066064 -s 1 -d -1 -p ack -e 40 -c 2 -a 0 -i 108 -k AGT
r -t 56.036336908 -s 1 -d 1 -p tcp -e 1060 -c 2 -a 0 -i 101 -k AGT
+ -t 56.036336908 -s 1 -d -1 -p ack -e 40 -c 2 -a 0 -i 109 -k AGT 
- -t 56.036336908 -s 1 -d -1 -p ack -e 40 -c 2 -a 0 -i 109 -k AGT
h -t 56.036336908 -s 1 -d -1 -p ack -e 40 -c 2 -a 0 -i 109 -k AGT
r -t 56.048847750 -s 1 -d 1 -p tcp -e 1060 -c 2 -a 0 -i 102 -k AGT
+ -t 56.048847750 -s 1 -d -1 -p ack -e 40 -c 2 -a 0 -i 110 -k AGT 
- -t 56.048847750 -s 1 -d -1 -p ack -e 40 -c 2 -a 0 -i 110 -k AGT
h -t 56.048847750 -s 1 -d -1 -p ack -e 40 -c 2 -a 0 -i 110 -k AGT
r -t 56.061398591 -s 1 -d 1 -p tcp -e 1060 -c 2 -a 0 -i 103 -k AGT
+ -t 56.061398591 -s 1 -d -1 -p ack -e 40 -c 2 -a 0 -i 111 -k AGT 
- -t 56.061398591 -s 1 -d -1 -p ack -e 40 -c 2 -a 0 -i 111 -k AGT
h -t 56.061398591 -s 1 -d -1 -p ack -e 40 -c 2 -a 0 -i 111 -k AGT
r -t 56.073489431 -s 1 -d 1 -p tcp -e 1060 -c 2 -a 0 -i 104 -k AGT
+ -t 56.073489431 -s 1 -d -1 -p ack -e 40 -c 2 -a 0 -i 112 -k AGT 
- -t 56.073489431 -s 1 -d -1 -p ack -e 40 -c 2 -a 0 -i 112 -k AGT
h -t 56.073489431 -s 1 -d -1 -p ack -e 40 -c 2 -a 0 -i 112 -k AGT
r -t 56.083615324 -s 1 -d 1 -p tcp -e 1060 -c 2 -a 0 -i 105 -k AGT
+ -t 56.083615324 -s 1 -d -1 -p ack -e 40 -c 2 -a 0 -i 113 -k AGT 
- -t 56.083615324 -s 1 -d -1 -p ack -e 40 -c 2 -a 0 -i 113 -k AGT
h -t 56.083615324 -s 1 -d -1 -p ack -e 40 -c 2 -a 0 -i 113 -k AGT
r -t 56.096086162 -s 1 -d 1 -p tcp -e 1060 -c 2 -a 0 -i 106 -k AGT
+ -t 56.096086162 -s 1 -d -1 -p ack -e 40 -c 2 -a 0 -i 114 -k AGT 
- -t 56.096086162 -s 1 -d -1 -p ack -e 40 -c 2 -a 0 -i 114 -k AGT
h -t 56.096086162 -s 1 -d -1 -p ack -e 40 -c 2 -a 0 -i 114 -k AGT
r -t 56.100577031 -s 0 -d 0 -p ack -e 60 -c 2 -a 0 -i 107 -k AGT
+ -t 56.100577031 -s 0 -d -1 -p tcp -e 1040 -c 2 -a 0 -i 115 -k AGT 
- -t 56.100577031 -s 0 -d -1 -p tcp -e 1040 -c 2 -a 0 -i 115 -k AGT
h -t 56.100577031 -s 0 -d -1 -p tcp -e 1040 -c 2 -a 0 -i 115 -k AGT
r -t 56.104972758 -s 0 -d 0 -p ack -e 60 -c 2 -a 0 -i 108 -k AGT
+ -t 56.104972758 -s 0 -d -1 -p tcp -e 1040 -c 2 -a 0 -i 116 -k AGT 
- -t 56.104972758 -s 0 -d -1 -p tcp -e 1040 -c 2 -a 0 -i 116 -k AGT
h -t 56.104972758 -s 0 -d -1 -p tcp -e 1040 -c 2 -a 0 -i 116 -k AGT
+ -t 56.104972758 -s 0 -d -1 -p tcp -e 1040 -c 2 -a 0 -i 117 -k AGT 
- -t 56.104972758 -s 0 -d -1 -p tcp -e 1040 -c 2 -a 0 -i 117 -k AGT
h -t 56.104972758 -s 0 -d -1 -p tcp -e 1040 -c 2 -a 0 -i 117 -k AGT
r -t 56.137175527 -s 0 -d 0 -p ack -e 60 -c 2 -a 0 -i 109 -k AGT
+ -t 56.137175527 -s 0 -d -1 -p tcp -e 1040 -c 2 -a 0 -i 118 -k AGT 
- -t 56.137175527 -s 0 -d -1 -p tcp -e 1040 -c 2 -a 0 -i 118 -k AGT
h -t 56.137175527 -s 0 -d -1 -p tcp -e 1040 -c 2 -a 0 -i 118 -k AGT
r -t 56.139161460 -s 0 -d 0 -p ack -e 60 -c 2 -a 0 -i 110 -k AGT
+ -t 56.139161460 -s 0 -d -1 -p tcp -e 1040 -c 2 -a 0 -i 119 -k AGT 
- -t 56.139161460 -s 0 -d -1 -p tcp -e 1040 -c 2 -a 0 -i 119 -k AGT
h -t 56.139161460 -s 0 -d -1 -p tcp -e 1040 -c 2 -a 0 -i 119 -k AGT
r -t 56.151712360 -s 0 -d 0 -p ack -e 60 -c 2 -a 0 -i 111 -k AGT
+ -t 56.151712360 -s 0 -d -1 -p tcp -e 1040 -c 2 -a 0 -i 120 -k AGT 
- -t 56.151712360 -s 0 -d -1 -p tcp -e 1040 -c 2 -a 0 -i 120 -k AGT
h -t 56.151712360 -s 0 -d -1 -p tcp -e 1040 -c 2 -a 0 -i 120 -k AGT
r -t 56.153818293 -s 0 -d 0 -p ack -e 60 -c 2 -a 0 -i 112 -k AGT
+ -t 56.153818293 -s 0 -d -1 -p tcp -e 1040 -c 2 -a 0 -i 121 -k AGT 
- -t 56.153818293 -s 0 -d -1 -p tcp -e 1040 -c 2 -a 0 -i 121 -k AGT
h -t 56.153818293 -s 0 -d -1 -p tcp -e 1040 -c 2 -a 0 -i 121 -k AGT
r -t 56.166149192 -s 0 -d 0 -p ack -e 60 -c 2 -a 0 -i 113 -k AGT
+ -t 56.166149192 -s 0 -d -1 -p tcp -e 1040 -c 2 -a 0 -i 122 -k AGT 
- -t 56.166149192 -s 0 -d -1 -p tcp -e 1040 -c 2 -a 0 -i 122 -k AGT
h -t 56.166149192 -s 0 -d -1 -p tcp -e 1040 -c 2 -a 0 -i 122 -k AGT
r -t 56.176135090 -s 1 -d 1 -p tcp -e 1060 -c 2 -a 0 -i 115 -k AGT
+ -t 56.176135090 -s 1 -d -1 -p ack -e 40 -c 2 -a 0 -i 123 -k AGT 
- -t 56.176135090 -s 1 -d -1 -p ack -e 40 -c 2 -a 0 -i 123 -k AGT
h -t 56.176135090 -s 1 -d -1 -p ack -e 40 -c 2 -a 0 -i 123 -k AGT
r -t 56.188525919 -s 1 -d 1 -p tcp -e 1060 -c 2 -a 0 -i 116 -k AGT
+ -t 56.188525919 -s 1 -d -1 -p ack -e 40 -c 2 -a 0 -i 124 -k AGT 
- -t 56.188525919 -s 1 -d -1 -p ack -e 40 -c 2 -a 0 -i 124 -k AGT
h -t 56.188525919 -s 1 -d -1 -p ack -e 40 -c 2 -a 0 -i 124 -k AGT
r -t 56.210932579 -s 1 -d 1 -p tcp -e 1060 -c 2 -a 0 -i 117 -k AGT
+ -t 56.210932579 -s 1 -d -1 -p ack -e 40 -c 2 -a 0 -i 125 -k AGT 
- -t 56.210932579 -s 1 -d -1 -p ack -e 40 -c 2 -a 0 -i 125 -k AGT
h -t 56.210932579 -s 1 -d -1 -p ack -e 40 -c 2 -a 0 -i 125 -k AGT
r -t 56.220938463 -s 1 -d 1 -p tcp -e 1060 -c 2 -a 0 -i 118 -k AGT
+ -t 56.220938463 -s 1 -d -1 -p ack -e 40 -c 2 -a 0 -i 126 -k AGT 
- -t 56.220938463 -s 1 -d -1 -p ack -e 40 -c 2 -a 0 -i 126 -k AGT
h -t 56.220938463 -s 1 -d -1 -p ack -e 40 -c 2 -a 0 -i 126 -k AGT
r -t 56.233289288 -s 1 -d 1 -p tcp -e 1060 -c 2 -a 0 -i 119 -k AGT
+ -t 56.233289288 -s 1 -d -1 -p ack -e 40 -c 2 -a 0 -i 127 -k AGT 
- -t 56.233289288 -s 1 -d -1 -p ack -e 40 -c 2 -a 0 -i 127 -k AGT
h -t 56.233289288 -s 1 -d -1 -p ack -e 40 -c 2 -a 0 -i 127 -k AGT
r -t 56.247775979 -s 0 -d 0 -p ack -e 60 -c 2 -a 0 -i 114 -k AGT
+ -t 56.247775979 -s 0 -d -1 -p tcp -e 1040 -c 2 -a 0 -i 128 -k AGT 
- -t 56.247775979 -s 0 -d -1 -p tcp -e 1040 -c 2 -a 0 -i 128 -k AGT
h -t 56.247775979 -s 0 -d -1 -p tcp -e 1040 -c 2 -a 0 -i 128 -k AGT
r -t 56.269992801 -s 0 -d 0 -p ack -e 60 -c 2 -a 0 -i 123 -k AGT
+ -t 56.269992801 -s 0 -d -1 -p tcp -e 1040 -c 2 -a 0 -i 129 -k AGT 
- -t 56.269992801 -s 0 -d -1 -p tcp -e 1040 -c 2 -a 0 -i 129 -k AGT
h -t 56.269992801 -s 0 -d -1 -p tcp -e 1040 -c 2 -a 0 -i 129 -k AGT
r -t 56.280018694 -s 1 -d 1 -p tcp -e 1060 -c 2 -a 0 -i 120 -k AGT
+ -t 56.280018694 -s 1 -d -1 -p ack -e 40 -c 2 -a 0 -i 130 -k AGT 
- -t 56.280018694 -s 1 -d -1 -p ack -e 40 -c 2 -a 0 -i 130 -k AGT
h -t 56.280018694 -s 1 -d -1 -p ack -e 40 -c 2 -a 0 -i 130 -k AGT
r -t 56.282384610 -s 0 -d 0 -p ack -e 60 -c 2 -a 0 -i 124 -k AGT
+ -t 56.282384610 -s 0 -d -1 -p tcp -e 1040 -c 2 -a 0 -i 131 -k AGT 
- -t 56.282384610 -s 0 -d -1 -p tcp -e 1040 -c 2 -a 0 -i 131 -k AGT
h -t 56.282384610 -s 0 -d -1 -p tcp -e 1040 -c 2 -a 0 -i 131 -k AGT
r -t 56.284530538 -s 0 -d 0 -p ack -e 60 -c 2 -a 0 -i 125 -k AGT
+ -t 56.284530538 -s 0 -d -1 -p tcp -e 1040 -c 2 -a 0 -i 132 -k AGT 