s 10.000000000 _0_ AGT  --- 3 tcp 40 [0 0 0 0] ------- [0:0 1:0 32 0] [0 0] 0 0
M 10.00000 0 (5.00, 5.00, 0.00), (250.00, 250.00), 3.00
s 13.000000000 _0_ AGT  --- 5 tcp 40 [0 0 0 0] ------- [0:0 1:0 32 0] [0 0] 0 0
M 15.00000 1 (490.00, 285.00, 0.00), (45.00, 285.00), 5.00
s 19.000000000 _0_ AGT  --- 8 tcp 40 [0 0 0 0] ------- [0:0 1:0 32 0] [0 0] 0 0
s 31.000000000 _0_ AGT  --- 12 tcp 40 [0 0 0 0] ------- [0:0 1:0 32 0] [0 0] 0 0
D 52.057863315 _0_ IFQ  ARP 3 tcp 80 [0 0 0 800] ------- [0:0 1:0 32 2] [0 0] 0 0
D 52.057863315 _0_ IFQ  ARP 5 tcp 80 [0 0 0 800] ------- [0:0 1:0 32 2] [0 0] 0 0
D 52.057863315 _0_ RTR  CBK 8 tcp 80 [0 0 0 800] ------- [0:0 1:0 32 2] [0 0] 0 0
D 52.057863315 _0_ RTR  CBK 12 tcp 80 [0 0 0 800] ------- [0:0 1:0 32 2] [0 0] 0 0
s 55.000000000 _0_ AGT  --- 23 tcp 40 [0 0 0 0] ------- [0:0 1:0 32 0] [0 0] 0 0
r 55.007399911 _1_ AGT  --- 23 tcp 60 [13a 1 2 800] ------- [0:0 1:0 31 1] [0 0] 2 0
s 55.007399911 _1_ AGT  --- 24 ack 40 [0 0 0 0] ------- [1:0 0:0 32 0] [0 0] 0 0
r 55.012110862 _0_ AGT  --- 24 ack 60 [13a 0 2 800] ------- [1:0 0:0 31 0] [0 0] 2 0
s 55.012110862 _0_ AGT  --- 25 tcp 1040 [0 0 0 0] ------- [0:0 1:0 32 0] [1 0] 0 0
r 55.032641812 _1_ AGT  --- 25 tcp 1060 [13a 1 2 800] ------- [0:0 1:0 31 1] [1 0] 2 0
s 55.032641812 _1_ AGT  --- 26 ack 40 [0 0 0 0] ------- [1:0 0:0 32 0] [1 0] 0 0
r 55.036972761 _0_ AGT  --- 26 ack 60 [13a 0 2 800] ------- [1:0 0:0 31 0] [1 0] 2 0
s 55.036972761 _0_ AGT  --- 27 tcp 1040 [0 0 0 0] ------- [0:0 1:0 32 0] [2 0] 0 0
s 55.036972761 _0_ AGT  --- 28 tcp 1040 [0 0 0 0] ------- [0:0 1:0 32 0] [3 0] 0 0
r 55.057383709 _1_ AGT  --- 27 tcp 1060 [13a 1 2 800] ------- [0:0 1:0 31 1] [2 0] 2 0
s 55.057383709 _1_ AGT  --- 29 ack 40 [0 0 0 0] ------- [1:0 0:0 32 0] [2 0] 0 0
r 55.061694655 _0_ AGT  --- 29 ack 60 [13a 0 2 800] ------- [1:0 0:0 31 0] [2 0] 2 0
s 55.061694655 _0_ AGT  --- 30 tcp 1040 [0 0 0 0] ------- [0:0 1:0 32 0] [4 0] 0 0
r 55.092211573 _1_ AGT  --- 28 tcp 1060 [13a 1 2 800] ------- [0:0 1:0 31 1] [3 0] 2 0
s 55.092211573 _1_ AGT  --- 31 ack 40 [0 0 0 0] ------- [1:0 0:0 32 0] [3 0] 0 0
r 55.104722505 _1_ AGT  --- 30 tcp 1060 [13a 1 2 800] ------- [0:0 1:0 31 1] [4 0] 2 0
s 55.104722505 _1_ AGT  --- 32 ack 40 [0 0 0 0] ------- [1:0 0:0 32 0] [4 0] 0 0
r 55.109133448 _0_ AGT  --- 31 ack 60 [13a 0 2 800] ------- [1:0 0:0 31 0] [3 0] 2 0
s 55.109133448 _0_ AGT  --- 33 tcp 1040 [0 0 0 0] ------- [0:0 1:0 32 0] [5 0] 0 0
r 55.121184403 _0_ AGT  --- 32 ack 60 [13a 0 2 800] ------- [1:0 0:0 31 0] [4 0] 2 0
s 55.121184403 _0_ AGT  --- 34 tcp 1040 [0 0 0 0] ------- [0:0 1:0 32 0] [6 0] 0 0
s 55.121184403 _0_ AGT  --- 35 tcp 1040 [0 0 0 0] ------- [0:0 1:0 32 0] [7 0] 0 0
r 55.131190361 _1_ AGT  --- 33 tcp 1060 [13a 1 2 800] ------- [0:0 1:0 31 1] [5 0] 2 0
s 55.131190361 _1_ AGT  --- 36 ack 40 [0 0 0 0] ------- [1:0 0:0 32 0] [5 0] 0 0
r 55.145557170 _0_ AGT  --- 36 ack 60 [13a 0 2 800] ------- [1:0 0:0 31 0] [5 0] 2 0
s 55.145557170 _0_ AGT  --- 37 tcp 1040 [0 0 0 0] ------- [0:0 1:0 32 0] [8 0] 0 0
r 55.166028110 _1_ AGT  --- 34 tcp 1060 [13a 1 2 800] ------- [0:0 1:0 31 1] [6 0] 2 0
s 55.166028110 _1_ AGT  --- 38 ack 40 [0 0 0 0] ------- [1:0 0:0 32 0] [6 0] 0 0
r 55.188554901 _1_ AGT  --- 35 tcp 1060 [13a 1 2 800] ------- [0:0 1:0 31 1] [7 0] 2 0
s 55.188554901 _1_ AGT  --- 39 ack 40 [0 0 0 0] ------- [1:0 0:0 32 0] [7 0] 0 0
r 55.190540864 _0_ AGT  --- 38 ack 60 [13a 0 2 800] ------- [1:0 0:0 31 0] [6 0] 2 0
s 55.190540864 _0_ AGT  --- 40 tcp 1040 [0 0 0 0] ------- [0:0 1:0 32 0] [9 0] 0 0
r 55.200526817 _1_ AGT  --- 37 tcp 1060 [13a 1 2 800] ------- [0:0 1:0 31 1] [8 0] 2 0
s 55.200526817 _1_ AGT  --- 41 ack 40 [0 0 0 0] ------- [1:0 0:0 32 0] [8 0] 0 0
r 55.215053619 _0_ AGT  --- 39 ack 60 [13a 0 2 800] ------- [1:0 0:0 31 0] [7 0] 2 0
s 55.215053619 _0_ AGT  --- 42 tcp 1040 [0 0 0 0] ------- [0:0 1:0 32 0] [10 0] 0 0
s 55.215053619 _0_ AGT  --- 43 tcp 1040 [0 0 0 0] ------- [0:0 1:0 32 0] [11 0] 0 0
r 55.235624553 _1_ AGT  --- 40 tcp 1060 [13a 1 2 800] ------- [0:0 1:0 31 1] [9 0] 2 0
s 55.235624553 _1_ AGT  --- 44 ack 40 [0 0 0 0] ------- [1:0 0:0 32 0] [9 0] 0 0
r 55.260127179 _1_ AGT  --- 42 tcp 1060 [13a 1 2 800] ------- [0:0 1:0 31 1] [10 0] 2 0
s 55.260127179 _1_ AGT  --- 45 ack 40 [0 0 0 0] ------- [1:0 0:0 32 0] [10 0] 0 0
r 55.262213139 _0_ AGT  --- 41 ack 60 [13a 0 2 800] ------- [1:0 0:0 31 0] [8 0] 2 0
s 55.262213139 _0_ AGT  --- 46 tcp 1040 [0 0 0 0] ------- [0:0 1:0 32 0] [12 0] 0 0
r 55.272199088 _1_ AGT  --- 43 tcp 1060 [13a 1 2 800] ------- [0:0 1:0 31 1] [11 0] 2 0
s 55.272199088 _1_ AGT  --- 47 ack 40 [0 0 0 0] ------- [1:0 0:0 32 0] [11 0] 0 0
r 55.276570019 _0_ AGT  --- 44 ack 60 [13a 0 2 800] ------- [1:0 0:0 31 0] [9 0] 2 0
s 55.276570019 _0_ AGT  --- 48 tcp 1040 [0 0 0 0] ------- [0:0 1:0 32 0] [13 0] 0 0
r 55.298786929 _0_ AGT  --- 45 ack 60 [13a 0 2 800] ------- [1:0 0:0 31 0] [10 0] 2 0
s 55.298786929 _0_ AGT  --- 49 tcp 1040 [0 0 0 0] ------- [0:0 1:0 32 0] [14 0] 0 0
r 55.308932876 _1_ AGT  --- 46 tcp 1060 [13a 1 2 800] ------- [0:0 1:0 31 1] [12 0] 2 0
s 55.308932876 _1_ AGT  --- 50 ack 40 [0 0 0 0] ------- [1:0 0:0 32 0] [12 0] 0 0
r 55.331419649 _1_ AGT  --- 48 tcp 1060 [13a 1 2 800] ------- [0:0 1:0 31 1] [13 0] 2 0
s 55.331419649 _1_ AGT  --- 51 ack 40 [0 0 0 0] ------- [1:0 0:0 32 0] [13 0] 0 0
r 55.335950576 _0_ AGT  --- 47 ack 60 [13a 0 2 800] ------- [1:0 0:0 31 0] [11 0] 2 0
s 55.335950576 _0_ AGT  --- 52 tcp 1040 [0 0 0 0] ------- [0:0 1:0 32 0] [15 0] 0 0
r 55.358417339 _1_ AGT  --- 49 tcp 1060 [13a 1 2 800] ------- [0:0 1:0 31 1] [14 0] 2 0
s 55.358417339 _1_ AGT  --- 53 ack 40 [0 0 0 0] ------- [1:0 0:0 32 0] [14 0] 0 0
r 55.362968264 _0_ AGT  --- 50 ack 60 [13a 0 2 800] ------- [1:0 0:0 31 0] [12 0] 2 0
s 55.362968264 _0_ AGT  --- 54 tcp 1040 [0 0 0 0] ------- [0:0 1:0 32 0] [16 0] 0 0
s 55.362968264 _0_ AGT  --- 55 tcp 1040 [0 0 0 0] ------- [0:0 1:0 32 0] [17 0] 0 0
r 55.373274207 _1_ AGT  --- 52 tcp 1060 [13a 1 2 800] ------- [0:0 1:0 31 1] [15 0] 2 0
s 55.373274207 _1_ AGT  --- 56 ack 40 [0 0 0 0] ------- [1:0 0:0 32 0] [15 0] 0 0
r 55.375300162 _0_ AGT  --- 51 ack 60 [13a 0 2 800] ------- [1:0 0:0 31 0] [13 0] 2 0
s 55.375300162 _0_ AGT  --- 57 tcp 1040 [0 0 0 0] ------- [0:0 1:0 32 0] [18 0] 0 0
r 55.389806938 _0_ AGT  --- 53 ack 60 [13a 0 2 800] ------- [1:0 0:0 31 0] [14 0] 2 0
s 55.389806938 _0_ AGT  --- 58 tcp 1040 [0 0 0 0] ------- [0:0 1:0 32 0] [19 0] 0 0
r 55.430369778 _1_ AGT  --- 54 tcp 1060 [13a 1 2 800] ------- [0:0 1:0 31 1] [16 0] 2 0
s 55.430369778 _1_ AGT  --- 59 ack 40 [0 0 0 0] ------- [1:0 0:0 32 0] [16 0] 0 0
r 55.432415731 _0_ AGT  --- 56 ack 60 [13a 0 2 800] ------- [1:0 0:0 31 0] [15 0] 2 0
s 55.432415731 _0_ AGT  --- 60 tcp 1040 [0 0 0 0] ------- [0:0 1:0 32 0] [20 0] 0 0
r 55.452706649 _1_ AGT  --- 55 tcp 1060 [13a 1 2 800] ------- [0:0 1:0 31 1] [17 0] 2 0
s 55.452706649 _1_ AGT  --- 61 ack 40 [0 0 0 0] ------- [1:0 0:0 32 0] [17 0] 0 0
r 55.462812581 _1_ AGT  --- 57 tcp 1060 [13a 1 2 800] ------- [0:0 1:0 31 1] [18 0] 2 0
s 55.462812581 _1_ AGT  --- 62 ack 40 [0 0 0 0] ------- [1:0 0:0 32 0] [18 0] 0 0
r 55.479235340 _1_ AGT  --- 58 tcp 1060 [13a 1 2 800] ------- [0:0 1:0 31 1] [19 0] 2 0
s 55.479235340 _1_ AGT  --- 63 ack 40 [0 0 0 0] ------- [1:0 0:0 32 0] [19 0] 0 0
r 55.489681270 _1_ AGT  --- 60 tcp 1060 [13a 1 2 800] ------- [0:0 1:0 31 1] [20 0] 2 0
s 55.489681270 _1_ AGT  --- 64 ack 40 [0 0 0 0] ------- [1:0 0:0 32 0] [20 0] 0 0
r 55.495998115 _0_ AGT  --- 59 ack 60 [13a 0 2 800] ------- [1:0 0:0 31 0] [16 0] 2 0
s 55.495998115 _0_ AGT  --- 65 tcp 1040 [0 0 0 0] ------- [0:0 1:0 32 0] [21 0] 0 0
r 55.508209049 _0_ AGT  --- 61 ack 60 [13a 0 2 800] ------- [1:0 0:0 31 0] [17 0] 2 0
s 55.508209049 _0_ AGT  --- 66 tcp 1040 [0 0 0 0] ------- [0:0 1:0 32 0] [22 0] 0 0
s 55.508209049 _0_ AGT  --- 67 tcp 1040 [0 0 0 0] ------- [0:0 1:0 32 0] [23 0] 0 0
r 55.510235005 _0_ AGT  --- 62 ack 60 [13a 0 2 800] ------- [1:0 0:0 31 0] [18 0] 2 0
s 55.510235005 _0_ AGT  --- 68 tcp 1040 [0 0 0 0] ------- [0:0 1:0 32 0] [24 0] 0 0
r 55.512320961 _0_ AGT  --- 63 ack 60 [13a 0 2 800] ------- [1:0 0:0 31 0] [19 0] 2 0
s 55.512320961 _0_ AGT  --- 69 tcp 1040 [0 0 0 0] ------- [0:0 1:0 32 0] [25 0] 0 0
r 55.534757849 _0_ AGT  --- 64 ack 60 [13a 0 2 800] ------- [1:0 0:0 31 0] [20 0] 2 0
s 55.534757849 _0_ AGT  --- 70 tcp 1040 [0 0 0 0] ------- [0:0 1:0 32 0] [26 0] 0 0
r 55.545063783 _1_ AGT  --- 65 tcp 1060 [13a 1 2 800] ------- [0:0 1:0 31 1] [21 0] 2 0
s 55.545063783 _1_ AGT  --- 71 ack 40 [0 0 0 0] ------- [1:0 0:0 32 0] [21 0] 0 0
r 55.567330526 _1_ AGT  --- 66 tcp 1060 [13a 1 2 800] ------- [0:0 1:0 31 1] [22 0] 2 0
s 55.567330526 _1_ AGT  --- 72 ack 40 [0 0 0 0] ------- [1:0 0:0 32 0] [22 0] 0 0
r 55.579681413 _1_ AGT  --- 67 tcp 1060 [13a 1 2 800] ------- [0:0 1:0 31 1] [23 0] 2 0
s 55.579681413 _1_ AGT  --- 73 ack 40 [0 0 0 0] ------- [1:0 0:0 32 0] [23 0] 0 0
r 55.584012321 _0_ AGT  --- 71 ack 60 [13a 0 2 800] ------- [1:0 0:0 31 0] [21 0] 2 0
s 55.584012321 _0_ AGT  --- 74 tcp 1040 [0 0 0 0] ------- [0:0 1:0 32 0] [27 0] 0 0
r 55.604103228 _1_ AGT  --- 68 tcp 1060 [13a 1 2 800] ------- [0:0 1:0 31 1] [24 0] 2 0
s 55.604103228 _1_ AGT  --- 75 ack 40 [0 0 0 0] ------- [1:0 0:0 32 0] [24 0] 0 0
r 55.618569986 _0_ AGT  --- 72 ack 60 [13a 0 2 800] ------- [1:0 0:0 31 0] [22 0] 2 0
s 55.618569986 _0_ AGT  --- 76 tcp 1040 [0 0 0 0] ------- [0:0 1:0 32 0] [28 0] 0 0
r 55.620555938 _0_ AGT  --- 73 ack 60 [13a 0 2 800] ------- [1:0 0:0 31 0] [23 0] 2 0
s 55.620555938 _0_ AGT  --- 77 tcp 1040 [0 0 0 0] ------- [0:0 1:0 32 0] [29 0] 0 0
s 55.620555938 _0_ AGT  --- 78 tcp 1040 [0 0 0 0] ------- [0:0 1:0 32 0] [30 0] 0 0
r 55.640966842 _1_ AGT  --- 69 tcp 1060 [13a 1 2 800] ------- [0:0 1:0 31 1] [25 0] 2 0
s 55.640966842 _1_ AGT  --- 79 ack 40 [0 0 0 0] ------- [1:0 0:0 32 0] [25 0] 0 0
r 55.665339547 _0_ AGT  --- 75 ack 60 [13a 0 2 800] ------- [1:0 0:0 31 0] [24 0] 2 0
s 55.665339547 _0_ AGT  --- 80 tcp 1040 [0 0 0 0] ------- [0:0 1:0 32 0] [31 0] 0 0
r 55.685710448 _1_ AGT  --- 70 tcp 1060 [13a 1 2 800] ------- [0:0 1:0 31 1] [26 0] 2 0
s 55.685710448 _1_ AGT  --- 81 ack 40 [0 0 0 0] ------- [1:0 0:0 32 0] [26 0] 0 0
r 55.696276365 _1_ AGT  --- 74 tcp 1060 [13a 1 2 800] ------- [0:0 1:0 31 1] [27 0] 2 0
s 55.696276365 _1_ AGT  --- 82 ack 40 [0 0 0 0] ------- [1:0 0:0 32 0] [27 0] 0 0
r 55.702413181 _0_ AGT  --- 79 ack 60 [13a 0 2 800] ------- [1:0 0:0 31 0] [25 0] 2 0
s 55.702413181 _0_ AGT  --- 83 tcp 1040 [0 0 0 0] ------- [0:0 1:0 32 0] [32 0] 0 0
r 55.722624079 _1_ AGT  --- 76 tcp 1060 [13a 1 2 800] ------- [0:0 1:0 31 1] [28 0] 2 0
s 55.722624079 _1_ AGT  --- 84 ack 40 [0 0 0 0] ------- [1:0 0:0 32 0] [28 0] 0 0
r 55.735194951 _1_ AGT  --- 77 tcp 1060 [13a 1 2 800] ------- [0:0 1:0 31 1] [29 0] 2 0
s 55.735194951 _1_ AGT  --- 85 ack 40 [0 0 0 0] ------- [1:0 0:0 32 0] [29 0] 0 0
r 55.747325822 _1_ AGT  --- 78 tcp 1060 [13a 1 2 800] ------- [0:0 1:0 31 1] [30 0] 2 0
s 55.747325822 _1_ AGT  --- 86 ack 40 [0 0 0 0] ------- [1:0 0:0 32 0] [30 0] 0 0
r 55.761792565 _0_ AGT  --- 81 ack 60 [13a 0 2 800] ------- [1:0 0:0 31 0] [26 0] 2 0
s 55.761792565 _0_ AGT  --- 87 tcp 1040 [0 0 0 0] ------- [0:0 1:0 32 0] [33 0] 0 0
r 55.764258512 _0_ AGT  --- 82 ack 60 [13a 0 2 800] ------- [1:0 0:0 31 0] [27 0] 2 0
s 55.764258512 _0_ AGT  --- 88 tcp 1040 [0 0 0 0] ------- [0:0 1:0 32 0] [34 0] 0 0
r 55.784489406 _1_ AGT  --- 80 tcp 1060 [13a 1 2 800] ------- [0:0 1:0 31 1] [31 0] 2 0
s 55.784489406 _1_ AGT  --- 89 ack 40 [0 0 0 0] ------- [1:0 0:0 32 0] [31 0] 0 0
r 55.799076144 _0_ AGT  --- 84 ack 60 [13a 0 2 800] ------- [1:0 0:0 31 0] [28 0] 2 0
s 55.799076144 _0_ AGT  --- 90 tcp 1040 [0 0 0 0] ------- [0:0 1:0 32 0] [35 0] 0 0
r 55.811507062 _0_ AGT  --- 85 ack 60 [13a 0 2 800] ------- [1:0 0:0 31 0] [29 0] 2 0
s 55.811507062 _0_ AGT  --- 91 tcp 1040 [0 0 0 0] ------- [0:0 1:0 32 0] [36 0] 0 0
r 55.823957980 _0_ AGT  --- 86 ack 60 [13a 0 2 800] ------- [1:0 0:0 31 0] [30 0] 2 0
s 55.823957980 _0_ AGT  --- 92 tcp 1040 [0 0 0 0] ------- [0:0 1:0 32 0] [37 0] 0 0
r 55.844488869 _1_ AGT  --- 83 tcp 1060 [13a 1 2 800] ------- [0:0 1:0 31 1] [32 0] 2 0
s 55.844488869 _1_ AGT  --- 93 ack 40 [0 0 0 0] ------- [1:0 0:0 32 0] [32 0] 0 0
r 55.854914776 _1_ AGT  --- 87 tcp 1060 [13a 1 2 800] ------- [0:0 1:0 31 1] [33 0] 2 0
s 55.854914776 _1_ AGT  --- 94 ack 40 [0 0 0 0] ------- [1:0 0:0 32 0] [33 0] 0 0
r 55.861111570 _0_ AGT  --- 89 ack 60 [13a 0 2 800] ------- [1:0 0:0 31 0] [31 0] 2 0
s 55.861111570 _0_ AGT  --- 95 tcp 1040 [0 0 0 0] ------- [0:0 1:0 32 0] [38 0] 0 0
s 55.861111570 _0_ AGT  --- 96 tcp 1040 [0 0 0 0] ------- [0:0 1:0 32 0] [39 0] 0 0
r 55.871097485 _1_ AGT  --- 88 tcp 1060 [13a 1 2 800] ------- [0:0 1:0 31 1] [34 0] 2 0
s 55.871097485 _1_ AGT  --- 97 ack 40 [0 0 0 0] ------- [1:0 0:0 32 0] [34 0] 0 0
r 55.883568343 _1_ AGT  --- 90 tcp 1060 [13a 1 2 800] ------- [0:0 1:0 31 1] [35 0] 2 0
s 55.883568343 _1_ AGT  --- 98 ack 40 [0 0 0 0] ------- [1:0 0:0 32 0] [35 0] 0 0
r 55.893574248 _1_ AGT  --- 91 tcp 1060 [13a 1 2 800] ------- [0:0 1:0 31 1] [36 0] 2 0
s 55.893574248 _1_ AGT  --- 99 ack 40 [0 0 0 0] ------- [1:0 0:0 32 0] [36 0] 0 0
r 55.905705104 _1_ AGT  --- 92 tcp 1060 [13a 1 2 800] ------- [0:0 1:0 31 1] [37 0] 2 0
s 55.905705104 _1_ AGT  --- 100 ack 40 [0 0 0 0] ------- [1:0 0:0 32 0] [37 0] 0 0
r 55.912021891 _0_ AGT  --- 93 ack 60 [13a 0 2 800] ------- [1:0 0:0 31 0] [32 0] 2 0
s 55.912021891 _0_ AGT  --- 101 tcp 1040 [0 0 0 0] ------- [0:0 1:0 32 0] [40 0] 0 0
r 55.934198743 _0_ AGT  --- 94 ack 60 [13a 0 2 800] ------- [1:0 0:0 31 0] [33 0] 2 0
s 55.934198743 _0_ AGT  --- 102 tcp 1040 [0 0 0 0] ------- [0:0 1:0 32 0] [41 0] 0 0
r 55.946409654 _0_ AGT  --- 97 ack 60 [13a 0 2 800] ------- [1:0 0:0 31 0] [34 0] 2 0
s 55.946409654 _0_ AGT  --- 103 tcp 1040 [0 0 0 0] ------- [0:0 1:0 32 0] [42 0] 0 0
r 55.948735594 _0_ AGT  --- 98 ack 60 [13a 0 2 800] ------- [1:0 0:0 31 0] [35 0] 2 0
s 55.948735594 _0_ AGT  --- 104 tcp 1040 [0 0 0 0] ------- [0:0 1:0 32 0] [43 0] 0 0
r 55.961106504 _0_ AGT  --- 99 ack 60 [13a 0 2 800] ------- [1:0 0:0 31 0] [36 0] 2 0
s 55.961106504 _0_ AGT  --- 105 tcp 1040 [0 0 0 0] ------- [0:0 1:0 32 0] [44 0] 0 0
r 55.983503352 _0_ AGT  --- 100 ack 60 [13a 0 2 800] ------- [1:0 0:0 31 0] [37 0] 2 0
s 55.983503352 _0_ AGT  --- 106 tcp 1040 [0 0 0 0] ------- [0:0 1:0 32 0] [45 0] 0 0
r 56.014020168 _1_ AGT  --- 95 tcp 1060 [13a 1 2 800] ------- [0:0 1:0 31 1] [38 0] 2 0
s 56.014020168 _1_ AGT  --- 107 ack 40 [0 0 0 0] ------- [1:0 0:0 32 0] [38 0] 0 0
r 56.024066064 _1_ AGT  --- 96 tcp 1060 [13a 1 2 800] ------- [0:0 1:0 31 1] [39 0] 2 0
s 56.024066064 _1_ AGT  --- 108 ack 40 [0 0 0 0] ------- [1:0 0:0 32 0] [39 0] 0 0
r 56.036336908 _1_ AGT  --- 101 tcp 1060 [13a 1 2 800] ------- [0:0 1:0 31 1] [40 0] 2 0
s 56.036336908 _1_ AGT  --- 109 ack 40 [0 0 0 0] ------- [1:0 0:0 32 0] [40 0] 0 0
r 56.048847750 _1_ AGT  --- 102 tcp 1060 [13a 1 2 800] ------- [0:0 1:0 31 1] [41 0] 2 0
s 56.048847750 _1_ AGT  --- 110 ack 40 [0 0 0 0] ------- [1:0 0:0 32 0] [41 0] 0 0
r 56.061398591 _1_ AGT  --- 103 tcp 1060 [13a 1 2 800] ------- [0:0 1:0 31 1] [42 0] 2 0
s 56.061398591 _1_ AGT  --- 111 ack 40 [0 0 0 0] ------- [1:0 0:0 32 0] [42 0] 0 0
r 56.073489431 _1_ AGT  --- 104 tcp 1060 [13a 1 2 800] ------- [0:0 1:0 31 1] [43 0] 2 0
s 56.073489431 _1_ AGT  --- 112 ack 40 [0 0 0 0] ------- [1:0 0:0 32 0] [43 0] 0 0
r 56.083615324 _1_ AGT  --- 105 tcp 1060 [13a 1 2 800] ------- [0:0 1:0 31 1] [44 0] 2 0
s 56.083615324 _1_ AGT  --- 113 ack 40 [0 0 0 0] ------- [1:0 0:0 32 0] [44 0] 0 0
r 56.096086162 _1_ AGT  --- 106 tcp 1060 [13a 1 2 800] ------- [0:0 1:0 31 1] [45 0] 2 0
s 56.096086162 _1_ AGT  --- 114 ack 40 [0 0 0 0] ------- [1:0 0:0 32 0] [45 0] 0 0
r 56.100577031 _0_ AGT  --- 107 ack 60 [13a 0 2 800] ------- [1:0 0:0 31 0] [38 0] 2 0
s 56.100577031 _0_ AGT  --- 115 tcp 1040 [0 0 0 0] ------- [0:0 1:0 32 0] [46 0] 0 0
r 56.104972758 _0_ AGT  --- 108 ack 60 [13a 0 2 800] ------- [1:0 0:0 31 0] [39 0] 2 0
s 56.104972758 _0_ AGT  --- 116 tcp 1040 [0 0 0 0] ------- [0:0 1:0 32 0] [47 0] 0 0
s 56.104972758 _0_ AGT  --- 117 tcp 1040 [0 0 0 0] ------- [0:0 1:0 32 0] [48 0] 0 0
r 56.137175527 _0_ AGT  --- 109 ack 60 [13a 0 2 800] ------- [1:0 0:0 31 0] [40 0] 2 0
s 56.137175527 _0_ AGT  --- 118 tcp 1040 [0 0 0 0] ------- [0:0 1:0 32 0] [49 0] 0 0
r 56.139161460 _0_ AGT  --- 110 ack 60 [13a 0 2 800] ------- [1:0 0:0 31 0] [41 0] 2 0
s 56.139161460 _0_ AGT  --- 119 tcp 1040 [0 0 0 0] ------- [0:0 1:0 32 0] [50 0] 0 0
r 56.151712360 _0_ AGT  --- 111 ack 60 [13a 0 2 800] ------- [1:0 0:0 31 0] [42 0] 2 0
s 56.151712360 _0_ AGT  --- 120 tcp 1040 [0 0 0 0] ------- [0:0 1:0 32 0] [51 0] 0 0
r 56.153818293 _0_ AGT  --- 112 ack 60 [13a 0 2 800] ------- [1:0 0:0 31 0] [43 0] 2 0
s 56.153818293 _0_ AGT  --- 121 tcp 1040 [0 0 0 0] ------- [0:0 1:0 32 0] [52 0] 0 0
r 56.166149192 _0_ AGT  --- 113 ack 60 [13a 0 2 800] ------- [1:0 0:0 31 0] [44 0] 2 0
s 56.166149192 _0_ AGT  --- 122 tcp 1040 [0 0 0 0] ------- [0:0 1:0 32 0] [53 0] 0 0
r 56.176135090 _1_ AGT  --- 115 tcp 1060 [13a 1 2 800] ------- [0:0 1:0 31 1] [46 0] 2 0
s 56.176135090 _1_ AGT  --- 123 ack 40 [0 0 0 0] ------- [1:0 0:0 32 0] [46 0] 0 0
r 56.188525919 _1_ AGT  --- 116 tcp 1060 [13a 1 2 800] ------- [0:0 1:0 31 1] [47 0] 2 0
s 56.188525919 _1_ AGT  --- 124 ack 40 [0 0 0 0] ------- [1:0 0:0 32 0] [47 0] 0 0
r 56.210932579 _1_ AGT  --- 117 tcp 1060 [13a 1 2 800] ------- [0:0 1:0 31 1] [48 0] 2 0
s 56.210932579 _1_ AGT  --- 125 ack 40 [0 0 0 0] ------- [1:0 0:0 32 0] [48 0] 0 0
r 56.220938463 _1_ AGT  --- 118 tcp 1060 [13a 1 2 800] ------- [0:0 1:0 31 1] [49 0] 2 0
s 56.220938463 _1_ AGT  --- 126 ack 40 [0 0 0 0] ------- [1:0 0:0 32 0] [49 0] 0 0
r 56.233289288 _1_ AGT  --- 119 tcp 1060 [13a 1 2 800] ------- [0:0 1:0 31 1] [50 0] 2 0
s 56.233289288 _1_ AGT  --- 127 ack 40 [0 0 0 0] ------- [1:0 0:0 32 0] [50 0] 0 0
r 56.247775979 _0_ AGT  --- 114 ack 60 [13a 0 2 800] ------- [1:0 0:0 31 0] [45 0] 2 0
s 56.247775979 _0_ AGT  --- 128 tcp 1040 [0 0 0 0] ------- [0:0 1:0 32 0] [54 0] 0 0
r 56.269992801 _0_ AGT  --- 123 ack 60 [13a 0 2 800] ------- [1:0 0:0 31 0] [46 0] 2 0
s 56.269992801 _0_ AGT  --- 129 tcp 1040 [0 0 0 0] ------- [0:0 1:0 32 0] [55 0] 0 0
r 56.280018694 _1_ AGT  --- 120 tcp 1060 [13a 1 2 800] ------- [0:0 1:0 31 1] [51 0] 2 0
s 56.280018694 _1_ AGT  --- 130 ack 40 [0 0 0 0] ------- [1:0 0:0 32 0] [51 0] 0 0
r 56.282384610 _0_ AGT  --- 124 ack 60 [13a 0 2 800] ------- [1:0 0:0 31 0] [47 0] 2 0
s 56.282384610 _0_ AGT  --- 131 tcp 1040 [0 0 0 0] ------- [0:0 1:0 32 0] [56 0] 0 0
r 56.284530538 _0_ AGT  --- 125 ack 60 [13a 0 2 800] ------- [1:0 0:0 31 0] [48 0] 2 0
s 56.284530538 _0_ AGT  --- 132 tcp 1040 [0 0 0 0] ------- [0:0 1:0 32 0] [57 0] 0 0
r 56.294656429 _1_ AGT  --- 121 tcp 1060 [13a 1 2 800] ------- [0:0 1:0 31 1] [52 0] 2 0
s 56.294656429 _1_ AGT  --- 133 ack 40 [0 0 0 0] ------- [1:0 0:0 32 0] [52 0] 0 0
r 56.321114833 _1_ AGT  --- 122 tcp 1060 [13a 1 2 800] ------- [0:0 1:0 31 1] [53 0] 2 0
s 56.321114833 _1_ AGT  --- 134 ack 40 [0 0 0 0] ------- [1:0 0:0 32 0] [53 0] 0 0
r 56.333245648 _1_ AGT  --- 128 tcp 1060 [13a 1 2 800] ------- [0:0 1:0 31 1] [54 0] 2 0
s 56.333245648 _1_ AGT  --- 135 ack 40 [0 0 0 0] ------- [1:0 0:0 32 0] [54 0] 0 0
r 56.335611562 _0_ AGT  --- 126 ack 60 [13a 0 2 800] ------- [1:0 0:0 31 0] [49 0] 2 0
s 56.335611562 _0_ AGT  --- 136 tcp 1040 [0 0 0 0] ------- [0:0 1:0 32 0] [58 0] 0 0
s 56.335611562 _0_ AGT  --- 137 tcp 1040 [0 0 0 0] ------- [0:0 1:0 32 0] [59 0] 0 0
r 56.358008377 _0_ AGT  --- 127 ack 60 [13a 0 2 800] ------- [1:0 0:0 31 0] [50 0] 2 0
s 56.358008377 _0_ AGT  --- 138 tcp 1040 [0 0 0 0] ------- [0:0 1:0 32 0] [60 0] 0 0
r 56.359994302 _0_ AGT  --- 130 ack 60 [13a 0 2 800] ------- [1:0 0:0 31 0] [51 0] 2 0
s 56.359994302 _0_ AGT  --- 139 tcp 1040 [0 0 0 0] ------- [0:0 1:0 32 0] [61 0] 0 0
r 56.370020189 _1_ AGT  --- 129 tcp 1060 [13a 1 2 800] ------- [0:0 1:0 31 1] [55 0] 2 0
s 56.370020189 _1_ AGT  --- 140 ack 40 [0 0 0 0] ------- [1:0 0:0 32 0] [55 0] 0 0
r 56.388388514 _0_ AGT  --- 133 ack 60 [13a 0 2 800] ------- [1:0 0:0 31 0] [52 0] 2 0
s 56.388388514 _0_ AGT  --- 141 tcp 1040 [0 0 0 0] ------- [0:0 1:0 32 0] [62 0] 0 0
r 56.408719361 _1_ AGT  --- 131 tcp 1060 [13a 1 2 800] ------- [0:0 1:0 31 1] [56 0] 2 0
s 56.408719361 _1_ AGT  --- 142 ack 40 [0 0 0 0] ------- [1:0 0:0 32 0] [56 0] 0 0
r 56.420790169 _1_ AGT  --- 132 tcp 1060 [13a 1 2 800] ------- [0:0 1:0 31 1] [57 0] 2 0
s 56.420790169 _1_ AGT  --- 143 ack 40 [0 0 0 0] ------- [1:0 0:0 32 0] [57 0] 0 0
r 56.435176839 _0_ AGT  --- 134 ack 60 [13a 0 2 800] ------- [1:0 0:0 31 0] [53 0] 2 0
s 56.435176839 _0_ AGT  --- 144 tcp 1040 [0 0 0 0] ------- [0:0 1:0 32 0] [63 0] 0 0
r 56.447547723 _0_ AGT  --- 135 ack 60 [13a 0 2 800] ------- [1:0 0:0 31 0] [54 0] 2 0
s 56.447547723 _0_ AGT  --- 145 tcp 1040 [0 0 0 0] ------- [0:0 1:0 32 0] [64 0] 0 0
r 56.457653605 _1_ AGT  --- 136 tcp 1060 [13a 1 2 800] ------- [0:0 1:0 31 1] [58 0] 2 0
s 56.457653605 _1_ AGT  --- 146 ack 40 [0 0 0 0] ------- [1:0 0:0 32 0] [58 0] 0 0
r 56.461924448 _0_ AGT  --- 140 ack 60 [13a 0 2 800] ------- [1:0 0:0 31 0] [55 0] 2 0
s 56.461924448 _0_ AGT  --- 147 tcp 1040 [0 0 0 0] ------- [0:0 1:0 32 0] [65 0] 0 0
r 56.492501210 _1_ AGT  --- 137 tcp 1060 [13a 1 2 800] ------- [0:0 1:0 31 1] [59 0] 2 0
s 56.492501210 _1_ AGT  --- 148 ack 40 [0 0 0 0] ------- [1:0 0:0 32 0] [59 0] 0 0
r 56.494547117 _0_ AGT  --- 142 ack 60 [13a 0 2 800] ------- [1:0 0:0 31 0] [56 0] 2 0
s 56.494547117 _0_ AGT  --- 149 tcp 1040 [0 0 0 0] ------- [0:0 1:0 32 0] [66 0] 0 0
r 56.526969837 _0_ AGT  --- 143 ack 60 [13a 0 2 800] ------- [1:0 0:0 31 0] [57 0] 2 0
s 56.526969837 _0_ AGT  --- 150 tcp 1040 [0 0 0 0] ------- [0:0 1:0 32 0] [67 0] 0 0
r 56.537255715 _1_ AGT  --- 138 tcp 1060 [13a 1 2 800] ------- [0:0 1:0 31 1] [60 0] 2 0
s 56.537255715 _1_ AGT  --- 151 ack 40 [0 0 0 0] ------- [1:0 0:0 32 0] [60 0] 0 0
r 56.549846510 _1_ AGT  --- 139 tcp 1060 [13a 1 2 800] ------- [0:0 1:0 31 1] [61 0] 2 0
s 56.549846510 _1_ AGT  --- 152 ack 40 [0 0 0 0] ------- [1:0 0:0 32 0] [61 0] 0 0
r 56.564253166 _0_ AGT  --- 146 ack 60 [13a 0 2 800] ------- [1:0 0:0 31 0] [58 0] 2 0
s 56.564253166 _0_ AGT  --- 153 tcp 1040 [0 0 0 0] ------- [0:0 1:0 32 0] [68 0] 0 0
r 56.574259042 _1_ AGT  --- 141 tcp 1060 [13a 1 2 800] ------- [0:0 1:0 31 1] [62 0] 2 0
s 56.574259042 _1_ AGT  --- 154 ack 40 [0 0 0 0] ------- [1:0 0:0 32 0] [62 0] 0 0
r 56.584264903 _1_ AGT  --- 144 tcp 1060 [13a 1 2 800] ------- [0:0 1:0 31 1] [63 0] 2 0
s 56.584264903 _1_ AGT  --- 155 ack 40 [0 0 0 0] ------- [1:0 0:0 32 0] [63 0] 0 0
r 56.598641554 _1_ AGT  --- 145 tcp 1060 [13a 1 2 800] ------- [0:0 1:0 31 1] [64 0] 2 0
s 56.598641554 _1_ AGT  --- 156 ack 40 [0 0 0 0] ------- [1:0 0:0 32 0] [64 0] 0 0
r 56.608627413 _1_ AGT  --- 147 tcp 1060 [13a 1 2 800] ------- [0:0 1:0 31 1] [65 0] 2 0
s 56.608627413 _1_ AGT  --- 157 ack 40 [0 0 0 0] ------- [1:0 0:0 32 0] [65 0] 0 0
r 56.618673272 _1_ AGT  --- 149 tcp 1060 [13a 1 2 800] ------- [0:0 1:0 31 1] [66 0] 2 0
s 56.618673272 _1_ AGT  --- 158 ack 40 [0 0 0 0] ------- [1:0 0:0 32 0] [66 0] 0 0
r 56.633079922 _0_ AGT  --- 148 ack 60 [13a 0 2 800] ------- [1:0 0:0 31 0] [59 0] 2 0
s 56.633079922 _0_ AGT  --- 159 tcp 1040 [0 0 0 0] ------- [0:0 1:0 32 0] [69 0] 0 0
s 56.633079922 _0_ AGT  --- 160 tcp 1040 [0 0 0 0] ------- [0:0 1:0 32 0] [70 0] 0 0
r 56.645410795 _0_ AGT  --- 151 ack 60 [13a 0 2 800] ------- [1:0 0:0 31 0] [60 0] 2 0
s 56.645410795 _0_ AGT  --- 161 tcp 1040 [0 0 0 0] ------- [0:0 1:0 32 0] [71 0] 0 0
r 56.655416666 _1_ AGT  --- 150 tcp 1060 [13a 1 2 800] ------- [0:0 1:0 31 1] [67 0] 2 0
s 56.655416666 _1_ AGT  --- 162 ack 40 [0 0 0 0] ------- [1:0 0:0 32 0] [67 0] 0 0
r 56.659647494 _0_ AGT  --- 152 ack 60 [13a 0 2 800] ------- [1:0 0:0 31 0] [61 0] 2 0
s 56.659647494 _0_ AGT  --- 163 tcp 1040 [0 0 0 0] ------- [0:0 1:0 32 0] [72 0] 0 0
r 56.661853408 _0_ AGT  --- 154 ack 60 [13a 0 2 800] ------- [1:0 0:0 31 0] [62 0] 2 0
s 56.661853408 _0_ AGT  --- 164 tcp 1040 [0 0 0 0] ------- [0:0 1:0 32 0] [73 0] 0 0
r 56.663839323 _0_ AGT  --- 155 ack 60 [13a 0 2 800] ------- [1:0 0:0 31 0] [63 0] 2 0
s 56.663839323 _0_ AGT  --- 165 tcp 1040 [0 0 0 0] ------- [0:0 1:0 32 0] [74 0] 0 0
r 56.674065193 _1_ AGT  --- 153 tcp 1060 [13a 1 2 800] ------- [0:0 1:0 31 1] [68 0] 2 0
s 56.674065193 _1_ AGT  --- 166 ack 40 [0 0 0 0] ------- [1:0 0:0 32 0] [68 0] 0 0
r 56.684211048 _1_ AGT  --- 159 tcp 1060 [13a 1 2 800] ------- [0:0 1:0 31 1] [69 0] 2 0
s 56.684211048 _1_ AGT  --- 167 ack 40 [0 0 0 0] ------- [1:0 0:0 32 0] [69 0] 0 0
r 56.708743603 _0_ AGT  --- 156 ack 60 [13a 0 2 800] ------- [1:0 0:0 31 0] [64 0] 2 0
s 56.708743603 _0_ AGT  --- 168 tcp 1040 [0 0 0 0] ------- [0:0 1:0 32 0] [75 0] 0 0
r 56.721334472 _0_ AGT  --- 157 ack 60 [13a 0 2 800] ------- [1:0 0:0 31 0] [65 0] 2 0
s 56.721334472 _0_ AGT  --- 169 tcp 1040 [0 0 0 0] ------- [0:0 1:0 32 0] [76 0] 0 0
r 56.731460339 _1_ AGT  --- 160 tcp 1060 [13a 1 2 800] ------- [0:0 1:0 31 1] [70 0] 2 0
s 56.731460339 _1_ AGT  --- 170 ack 40 [0 0 0 0] ------- [1:0 0:0 32 0] [70 0] 0 0
r 56.743611115 _1_ AGT  --- 161 tcp 1060 [13a 1 2 800] ------- [0:0 1:0 31 1] [71 0] 2 0
s 56.743611115 _1_ AGT  --- 171 ack 40 [0 0 0 0] ------- [1:0 0:0 32 0] [71 0] 0 0
r 56.755701891 _1_ AGT  --- 163 tcp 1060 [13a 1 2 800] ------- [0:0 1:0 31 1] [72 0] 2 0
s 56.755701891 _1_ AGT  --- 172 ack 40 [0 0 0 0] ------- [1:0 0:0 32 0] [72 0] 0 0
r 56.757687786 _0_ AGT  --- 158 ack 60 [13a 0 2 800] ------- [1:0 0:0 31 0] [66 0] 2 0
s 56.757687786 _0_ AGT  --- 173 tcp 1040 [0 0 0 0] ------- [0:0 1:0 32 0] [77 0] 0 0
r 56.779824563 _0_ AGT  --- 162 ack 60 [13a 0 2 800] ------- [1:0 0:0 31 0] [67 0] 2 0
s 56.779824563 _0_ AGT  --- 174 tcp 1040 [0 0 0 0] ------- [0:0 1:0 32 0] [78 0] 0 0
r 56.790150427 _1_ AGT  --- 164 tcp 1060 [13a 1 2 800] ------- [0:0 1:0 31 1] [73 0] 2 0
s 56.790150427 _1_ AGT  --- 175 ack 40 [0 0 0 0] ------- [1:0 0:0 32 0] [73 0] 0 0
r 56.812697010 _1_ AGT  --- 165 tcp 1060 [13a 1 2 800] ------- [0:0 1:0 31 1] [74 0] 2 0
s 56.812697010 _1_ AGT  --- 176 ack 40 [0 0 0 0] ------- [1:0 0:0 32 0] [74 0] 0 0
r 56.814762904 _0_ AGT  --- 166 ack 60 [13a 0 2 800] ------- [1:0 0:0 31 0] [68 0] 2 0
s 56.814762904 _0_ AGT  --- 177 tcp 1040 [0 0 0 0] ------- [0:0 1:0 32 0] [79 0] 0 0
r 56.824928765 _1_ AGT  --- 168 tcp 1060 [13a 1 2 800] ------- [0:0 1:0 31 1] [75 0] 2 0
s 56.824928765 _1_ AGT  --- 178 ack 40 [0 0 0 0] ------- [1:0 0:0 32 0] [75 0] 0 0
r 56.829119581 _0_ AGT  --- 167 ack 60 [13a 0 2 800] ------- [1:0 0:0 31 0] [69 0] 2 0
s 56.829119581 _0_ AGT  --- 179 tcp 1040 [0 0 0 0] ------- [0:0 1:0 32 0] [80 0] 0 0
r 56.881573768 _1_ AGT  --- 169 tcp 1060 [13a 1 2 800] ------- [0:0 1:0 31 1] [76 0] 2 0
s 56.881573768 _1_ AGT  --- 180 ack 40 [0 0 0 0] ------- [1:0 0:0 32 0] [76 0] 0 0
r 56.891639610 _1_ AGT  --- 173 tcp 1060 [13a 1 2 800] ------- [0:0 1:0 31 1] [77 0] 2 0
s 56.891639610 _1_ AGT  --- 181 ack 40 [0 0 0 0] ------- [1:0 0:0 32 0] [77 0] 0 0
r 56.908012071 _0_ AGT  --- 170 ack 60 [13a 0 2 800] ------- [1:0 0:0 31 0] [70 0] 2 0
s 56.908012071 _0_ AGT  --- 182 tcp 1040 [0 0 0 0] ------- [0:0 1:0 32 0] [81 0] 0 0
r 56.917997927 _1_ AGT  --- 174 tcp 1060 [13a 1 2 800] ------- [0:0 1:0 31 1] [78 0] 2 0
s 56.917997927 _1_ AGT  --- 183 ack 40 [0 0 0 0] ------- [1:0 0:0 32 0] [78 0] 0 0
r 56.944476172 _1_ AGT  --- 177 tcp 1060 [13a 1 2 800] ------- [0:0 1:0 31 1] [79 0] 2 0
s 56.944476172 _1_ AGT  --- 184 ack 40 [0 0 0 0] ------- [1:0 0:0 32 0] [79 0] 0 0
r 56.953038654 _0_ AGT  --- 171 ack 60 [13a 0 2 800] ------- [1:0 0:0 31 0] [71 0] 2 0
s 56.953038654 _0_ AGT  --- 185 tcp 1040 [0 0 0 0] ------- [0:0 1:0 32 0] [82 0] 0 0
s 56.953038654 _0_ AGT  --- 186 tcp 1040 [0 0 0 0] ------- [0:0 1:0 32 0] [83 0] 0 0
r 56.955284558 _0_ AGT  --- 172 ack 60 [13a 0 2 800] ------- [1:0 0:0 31 0] [72 0] 2 0
s 56.955284558 _0_ AGT  --- 187 tcp 1040 [0 0 0 0] ------- [0:0 1:0 32 0] [84 0] 0 0
r 56.975615363 _1_ AGT  --- 179 tcp 1060 [13a 1 2 800] ------- [0:0 1:0 31 1] [80 0] 2 0
s 56.975615363 _1_ AGT  --- 188 ack 40 [0 0 0 0] ------- [1:0 0:0 32 0] [80 0] 0 0
r 56.977661250 _0_ AGT  --- 175 ack 60 [13a 0 2 800] ------- [1:0 0:0 31 0] [73 0] 2 0
s 56.977661250 _0_ AGT  --- 189 tcp 1040 [0 0 0 0] ------- [0:0 1:0 32 0] [85 0] 0 0
r 56.979787153 _0_ AGT  --- 176 ack 60 [13a 0 2 800] ------- [1:0 0:0 31 0] [74 0] 2 0
s 56.979787153 _0_ AGT  --- 190 tcp 1040 [0 0 0 0] ------- [0:0 1:0 32 0] [86 0] 0 0
r 57.012309812 _0_ AGT  --- 178 ack 60 [13a 0 2 800] ------- [1:0 0:0 31 0] [75 0] 2 0
s 57.012309812 _0_ AGT  --- 191 tcp 1040 [0 0 0 0] ------- [0:0 1:0 32 0] [87 0] 0 0
r 57.022315662 _1_ AGT  --- 182 tcp 1060 [13a 1 2 800] ------- [0:0 1:0 31 1] [81 0] 2 0
s 57.022315662 _1_ AGT  --- 192 ack 40 [0 0 0 0] ------- [1:0 0:0 32 0] [81 0] 0 0
r 57.024341547 _0_ AGT  --- 180 ack 60 [13a 0 2 800] ------- [1:0 0:0 31 0] [76 0] 2 0
s 57.024341547 _0_ AGT  --- 193 tcp 1040 [0 0 0 0] ------- [0:0 1:0 32 0] [88 0] 0 0
r 57.048774035 _0_ AGT  --- 181 ack 60 [13a 0 2 800] ------- [1:0 0:0 31 0] [77 0] 2 0
s 57.048774035 _0_ AGT  --- 194 tcp 1040 [0 0 0 0] ------- [0:0 1:0 32 0] [89 0] 0 0
r 57.050859936 _0_ AGT  --- 183 ack 60 [13a 0 2 800] ------- [1:0 0:0 31 0] [78 0] 2 0
s 57.050859936 _0_ AGT  --- 195 tcp 1040 [0 0 0 0] ------- [0:0 1:0 32 0] [90 0] 0 0
r 57.071210734 _1_ AGT  --- 185 tcp 1060 [13a 1 2 800] ------- [0:0 1:0 31 1] [82 0] 2 0
s 57.071210734 _1_ AGT  --- 196 ack 40 [0 0 0 0] ------- [1:0 0:0 32 0] [82 0] 0 0
r 57.095723111 _1_ AGT  --- 186 tcp 1060 [13a 1 2 800] ------- [0:0 1:0 31 1] [83 0] 2 0
s 57.095723111 _1_ AGT  --- 197 ack 40 [0 0 0 0] ------- [1:0 0:0 32 0] [83 0] 0 0
r 57.109879681 _1_ AGT  --- 187 tcp 1060 [13a 1 2 800] ------- [0:0 1:0 31 1] [84 0] 2 0
s 57.109879681 _1_ AGT  --- 198 ack 40 [0 0 0 0] ------- [1:0 0:0 32 0] [84 0] 0 0
r 57.122350422 _1_ AGT  --- 189 tcp 1060 [13a 1 2 800] ------- [0:0 1:0 31 1] [85 0] 2 0
s 57.122350422 _1_ AGT  --- 199 ack 40 [0 0 0 0] ------- [1:0 0:0 32 0] [85 0] 0 0