r 128.006847881 _2_ AGT  --- 0 cbr 512 [13a 2 1 800] ------- [0:0 2:0 31 2] [0] 2 3
r 131.675524586 _2_ AGT  --- 4 cbr 512 [13a 2 1 800] ------- [0:0 2:0 31 2] [1] 2 3
r 133.958070782 _2_ AGT  --- 5 cbr 512 [13a 2 1 800] ------- [0:0 2:0 31 2] [2] 2 3
r 137.199595674 _2_ AGT  --- 6 cbr 512 [13a 2 1 800] ------- [0:0 2:0 31 2] [3] 2 3
r 139.516193286 _2_ AGT  --- 7 cbr 512 [13a 2 1 800] ------- [0:0 2:0 31 2] [4] 2 3
r 142.928796040 _2_ AGT  --- 8 cbr 512 [13a 2 1 800] ------- [0:0 2:0 31 2] [5] 2 3
r 146.633649142 _2_ AGT  --- 9 cbr 512 [13a 2 1 800] ------- [0:0 2:0 31 2] [6] 2 3
r 150.002309727 _2_ AGT  --- 10 tcp 40 [13a 2 1 800] ------- [1:0 2:1 32 2] [0 0] 1 2
r 150.004423455 _1_ AGT  --- 11 ack 40 [13a 1 2 800] ------- [2:1 1:0 32 1] [0 0] 1 2
r 150.015097182 _2_ AGT  --- 12 tcp 1040 [13a 2 1 800] ------- [1:0 2:1 32 2] [1 0] 1 2
r 150.025351485 _2_ AGT  --- 13 tcp 1040 [13a 2 1 800] ------- [1:0 2:1 32 2] [2 0] 1 2
r 150.027785212 _1_ AGT  --- 14 ack 40 [13a 1 2 800] ------- [2:1 1:0 32 1] [1 0] 1 2
r 150.029899515 _1_ AGT  --- 15 ack 40 [13a 1 2 800] ------- [2:1 1:0 32 1] [2 0] 1 2
r 150.040065243 _2_ AGT  --- 16 tcp 1040 [13a 2 1 800] ------- [1:0 2:1 32 2] [3 0] 1 2
r 150.050331546 _2_ AGT  --- 17 tcp 1040 [13a 2 1 800] ------- [1:0 2:1 32 2] [4 0] 1 2
r 150.052577273 _1_ AGT  --- 20 ack 40 [13a 1 2 800] ------- [2:1 1:0 32 1] [3 0] 1 2
r 150.062603000 _2_ AGT  --- 18 tcp 1040 [13a 2 1 800] ------- [1:0 2:1 32 2] [5 0] 1 2
r 150.072689304 _2_ AGT  --- 19 tcp 1040 [13a 2 1 800] ------- [1:0 2:1 32 2] [6 0] 1 2
r 150.075035031 _1_ AGT  --- 21 ack 40 [13a 1 2 800] ------- [2:1 1:0 32 1] [4 0] 1 2
r 150.085100758 _2_ AGT  --- 22 tcp 1040 [13a 2 1 800] ------- [1:0 2:1 32 2] [7 0] 1 2
r 150.095187061 _2_ AGT  --- 23 tcp 1040 [13a 2 1 800] ------- [1:0 2:1 32 2] [8 0] 1 2
r 150.097212789 _1_ AGT  --- 24 ack 40 [13a 1 2 800] ------- [2:1 1:0 32 1] [5 0] 1 2
r 150.107618516 _2_ AGT  --- 26 tcp 1040 [13a 2 1 800] ------- [1:0 2:1 32 2] [9 0] 1 2
r 150.109764243 _1_ AGT  --- 25 ack 40 [13a 1 2 800] ------- [2:1 1:0 32 1] [6 0] 1 2
r 150.111770546 _1_ AGT  --- 28 ack 40 [13a 1 2 800] ------- [2:1 1:0 32 1] [7 0] 1 2
r 150.113796849 _1_ AGT  --- 29 ack 40 [13a 1 2 800] ------- [2:1 1:0 32 1] [8 0] 1 2
r 150.123942577 _2_ AGT  --- 27 tcp 1040 [13a 2 1 800] ------- [1:0 2:1 32 2] [10 0] 1 2
r 150.126028304 _1_ AGT  --- 32 ack 40 [13a 1 2 800] ------- [2:1 1:0 32 1] [9 0] 1 2
r 150.136474031 _2_ AGT  --- 30 tcp 1040 [13a 2 1 800] ------- [1:0 2:1 32 2] [11 0] 1 2
r 150.138499759 _1_ AGT  --- 39 ack 40 [13a 1 2 800] ------- [2:1 1:0 32 1] [10 0] 1 2
r 150.140526062 _1_ AGT  --- 42 ack 40 [13a 1 2 800] ------- [2:1 1:0 32 1] [11 0] 1 2
r 150.150751789 _2_ AGT  --- 31 tcp 1040 [13a 2 1 800] ------- [1:0 2:1 32 2] [12 0] 1 2
r 150.160758092 _2_ AGT  --- 33 tcp 1040 [13a 2 1 800] ------- [1:0 2:1 32 2] [13 0] 1 2
r 150.162763819 _1_ AGT  --- 47 ack 40 [13a 1 2 800] ------- [2:1 1:0 32 1] [12 0] 1 2
r 150.172769547 _2_ AGT  --- 34 tcp 1040 [13a 2 1 800] ------- [1:0 2:1 32 2] [14 0] 1 2
r 150.183155850 _2_ AGT  --- 35 tcp 1040 [13a 2 1 800] ------- [1:0 2:1 32 2] [15 0] 1 2
r 150.185201577 _1_ AGT  --- 48 ack 40 [13a 1 2 800] ------- [2:1 1:0 32 1] [13 0] 1 2
r 150.195367304 _2_ AGT  --- 36 tcp 1040 [13a 2 1 800] ------- [1:0 2:1 32 2] [16 0] 1 2
r 150.197413032 _1_ AGT  --- 51 ack 40 [13a 1 2 800] ------- [2:1 1:0 32 1] [14 0] 1 2
r 150.207778759 _2_ AGT  --- 37 tcp 1040 [13a 2 1 800] ------- [1:0 2:1 32 2] [17 0] 1 2
r 150.209804486 _1_ AGT  --- 52 ack 40 [13a 1 2 800] ------- [2:1 1:0 32 1] [15 0] 1 2
r 150.219850214 _2_ AGT  --- 38 tcp 1040 [13a 2 1 800] ------- [1:0 2:1 32 2] [18 0] 1 2
r 150.230076517 _2_ AGT  --- 40 tcp 1040 [13a 2 1 800] ------- [1:0 2:1 32 2] [19 0] 1 2
r 150.232082244 _1_ AGT  --- 55 ack 40 [13a 1 2 800] ------- [2:1 1:0 32 1] [16 0] 1 2
r 150.234248547 _1_ AGT  --- 58 ack 40 [13a 1 2 800] ------- [2:1 1:0 32 1] [17 0] 1 2
r 150.244434275 _2_ AGT  --- 41 tcp 1040 [13a 2 1 800] ------- [1:0 2:1 32 2] [20 0] 1 2
r 150.246780002 _1_ AGT  --- 61 ack 40 [13a 1 2 800] ------- [2:1 1:0 32 1] [18 0] 1 2
r 150.256785729 _2_ AGT  --- 43 tcp 1040 [13a 2 1 800] ------- [1:0 2:1 32 2] [21 0] 1 2
r 150.267052032 _2_ AGT  --- 44 tcp 1040 [13a 2 1 800] ------- [1:0 2:1 32 2] [22 0] 1 2
r 150.269197760 _1_ AGT  --- 62 ack 40 [13a 1 2 800] ------- [2:1 1:0 32 1] [19 0] 1 2
r 150.279503487 _2_ AGT  --- 45 tcp 1040 [13a 2 1 800] ------- [1:0 2:1 32 2] [23 0] 1 2
r 150.281549214 _1_ AGT  --- 67 ack 40 [13a 1 2 800] ------- [2:1 1:0 32 1] [20 0] 1 2
r 150.283555517 _1_ AGT  --- 70 ack 40 [13a 1 2 800] ------- [2:1 1:0 32 1] [21 0] 1 2
r 150.285601820 _1_ AGT  --- 71 ack 40 [13a 1 2 800] ------- [2:1 1:0 32 1] [22 0] 1 2
r 150.287668123 _1_ AGT  --- 73 ack 40 [13a 1 2 800] ------- [2:1 1:0 32 1] [23 0] 1 2
r 150.297733851 _2_ AGT  --- 46 tcp 1040 [13a 2 1 800] ------- [1:0 2:1 32 2] [24 0] 1 2
r 150.299779578 _1_ AGT  --- 78 ack 40 [13a 1 2 800] ------- [2:1 1:0 32 1] [24 0] 1 2
r 150.309805305 _2_ AGT  --- 49 tcp 1040 [13a 2 1 800] ------- [1:0 2:1 32 2] [25 0] 1 2
r 150.319811608 _2_ AGT  --- 50 tcp 1040 [13a 2 1 800] ------- [1:0 2:1 32 2] [26 0] 1 2
r 150.321997336 _1_ AGT  --- 80 ack 40 [13a 1 2 800] ------- [2:1 1:0 32 1] [25 0] 1 2
r 150.324143639 _1_ AGT  --- 81 ack 40 [13a 1 2 800] ------- [2:1 1:0 32 1] [26 0] 1 2
r 150.334309366 _2_ AGT  --- 53 tcp 1040 [13a 2 1 800] ------- [1:0 2:1 32 2] [27 0] 1 2
r 150.336495094 _1_ AGT  --- 84 ack 40 [13a 1 2 800] ------- [2:1 1:0 32 1] [27 0] 1 2
r 150.346640821 _2_ AGT  --- 54 tcp 1040 [13a 2 1 800] ------- [1:0 2:1 32 2] [28 0] 1 2
r 150.348926548 _1_ AGT  --- 86 ack 40 [13a 1 2 800] ------- [2:1 1:0 32 1] [28 0] 1 2
r 150.358992275 _2_ AGT  --- 56 tcp 1040 [13a 2 1 800] ------- [1:0 2:1 32 2] [29 0] 1 2
r 150.361198003 _1_ AGT  --- 88 ack 40 [13a 1 2 800] ------- [2:1 1:0 32 1] [29 0] 1 2
r 150.371343730 _2_ AGT  --- 57 tcp 1040 [13a 2 1 800] ------- [1:0 2:1 32 2] [30 0] 1 2
r 150.373349457 _1_ AGT  --- 90 ack 40 [13a 1 2 800] ------- [2:1 1:0 32 1] [30 0] 1 2
r 150.383395185 _2_ AGT  --- 59 tcp 1040 [13a 2 1 800] ------- [1:0 2:1 32 2] [31 0] 1 2
r 150.393401488 _2_ AGT  --- 60 tcp 1040 [13a 2 1 800] ------- [1:0 2:1 32 2] [32 0] 1 2
r 150.403747791 _2_ AGT  --- 63 tcp 1040 [13a 2 1 800] ------- [1:0 2:1 32 2] [33 0] 1 2
r 150.405853518 _1_ AGT  --- 92 ack 40 [13a 1 2 800] ------- [2:1 1:0 32 1] [31 0] 1 2
r 150.407859821 _1_ AGT  --- 93 ack 40 [13a 1 2 800] ------- [2:1 1:0 32 1] [32 0] 1 2
r 150.410086124 _1_ AGT  --- 94 ack 40 [13a 1 2 800] ------- [2:1 1:0 32 1] [33 0] 1 2
r 150.420111852 _2_ AGT  --- 64 tcp 1040 [13a 2 1 800] ------- [1:0 2:1 32 2] [34 0] 1 2
r 150.430138155 _2_ AGT  --- 65 tcp 1040 [13a 2 1 800] ------- [1:0 2:1 32 2] [35 0] 1 2
r 150.440404458 _2_ AGT  --- 66 tcp 1040 [13a 2 1 800] ------- [1:0 2:1 32 2] [36 0] 1 2
r 150.442410185 _1_ AGT  --- 98 ack 40 [13a 1 2 800] ------- [2:1 1:0 32 1] [34 0] 1 2
r 150.444676488 _1_ AGT  --- 99 ack 40 [13a 1 2 800] ------- [2:1 1:0 32 1] [35 0] 1 2
r 150.454702216 _2_ AGT  --- 68 tcp 1040 [13a 2 1 800] ------- [1:0 2:1 32 2] [37 0] 1 2
r 150.456747943 _1_ AGT  --- 100 ack 40 [13a 1 2 800] ------- [2:1 1:0 32 1] [36 0] 1 2
r 150.466793670 _2_ AGT  --- 69 tcp 1040 [13a 2 1 800] ------- [1:0 2:1 32 2] [38 0] 1 2
r 150.476859973 _2_ AGT  --- 72 tcp 1040 [13a 2 1 800] ------- [1:0 2:1 32 2] [39 0] 1 2
r 150.479225701 _1_ AGT  --- 103 ack 40 [13a 1 2 800] ------- [2:1 1:0 32 1] [37 0] 1 2
r 150.489271428 _2_ AGT  --- 74 tcp 1040 [13a 2 1 800] ------- [1:0 2:1 32 2] [40 0] 1 2
r 150.499497731 _2_ AGT  --- 75 tcp 1040 [13a 2 1 800] ------- [1:0 2:1 32 2] [41 0] 1 2
r 150.501623458 _1_ AGT  --- 105 ack 40 [13a 1 2 800] ------- [2:1 1:0 32 1] [38 0] 1 2
r 150.511749186 _2_ AGT  --- 76 tcp 1040 [13a 2 1 800] ------- [1:0 2:1 32 2] [42 0] 1 2
r 150.513794913 _1_ AGT  --- 106 ack 40 [13a 1 2 800] ------- [2:1 1:0 32 1] [39 0] 1 2
r 150.523820640 _2_ AGT  --- 77 tcp 1040 [13a 2 1 800] ------- [1:0 2:1 32 2] [43 0] 1 2
r 150.533966943 _2_ AGT  --- 79 tcp 1040 [13a 2 1 800] ------- [1:0 2:1 32 2] [44 0] 1 2
r 150.536072671 _1_ AGT  --- 108 ack 40 [13a 1 2 800] ------- [2:1 1:0 32 1] [40 0] 1 2
r 150.546298398 _2_ AGT  --- 82 tcp 1040 [13a 2 1 800] ------- [1:0 2:1 32 2] [45 0] 1 2
r 150.548564125 _1_ AGT  --- 109 ack 40 [13a 1 2 800] ------- [2:1 1:0 32 1] [41 0] 1 2
r 150.560197004 _2_ AGT  --- 83 tcp 1040 [13a 2 1 800] ------- [1:0 2:1 32 2] [46 0] 1 2
r 150.562562731 _1_ AGT  --- 111 ack 40 [13a 1 2 800] ------- [2:1 1:0 32 1] [42 0] 1 2
r 150.572608459 _2_ AGT  --- 85 tcp 1040 [13a 2 1 800] ------- [1:0 2:1 32 2] [47 0] 1 2
r 150.574754186 _1_ AGT  --- 113 ack 40 [13a 1 2 800] ------- [2:1 1:0 32 1] [43 0] 1 2
r 150.576800489 _1_ AGT  --- 114 ack 40 [13a 1 2 800] ------- [2:1 1:0 32 1] [44 0] 1 2
r 150.579006792 _1_ AGT  --- 116 ack 40 [13a 1 2 800] ------- [2:1 1:0 32 1] [45 0] 1 2
r 150.589072520 _2_ AGT  --- 87 tcp 1040 [13a 2 1 800] ------- [1:0 2:1 32 2] [48 0] 1 2
r 150.591138247 _1_ AGT  --- 118 ack 40 [13a 1 2 800] ------- [2:1 1:0 32 1] [46 0] 1 2
r 150.601323974 _2_ AGT  --- 89 tcp 1040 [13a 2 1 800] ------- [1:0 2:1 32 2] [49 0] 1 2
r 150.611330277 _2_ AGT  --- 91 tcp 1040 [13a 2 1 800] ------- [1:0 2:1 32 2] [50 0] 1 2
r 150.613536005 _1_ AGT  --- 120 ack 40 [13a 1 2 800] ------- [2:1 1:0 32 1] [47 0] 1 2
r 150.623561732 _2_ AGT  --- 95 tcp 1040 [13a 2 1 800] ------- [1:0 2:1 32 2] [51 0] 1 2
r 150.633788035 _2_ AGT  --- 96 tcp 1040 [13a 2 1 800] ------- [1:0 2:1 32 2] [52 0] 1 2
r 150.635833762 _1_ AGT  --- 124 ack 40 [13a 1 2 800] ------- [2:1 1:0 32 1] [48 0] 1 2
r 150.645839490 _2_ AGT  --- 97 tcp 1040 [13a 2 1 800] ------- [1:0 2:1 32 2] [53 0] 1 2
r 150.656245793 _2_ AGT  --- 101 tcp 1040 [13a 2 1 800] ------- [1:0 2:1 32 2] [54 0] 1 2
r 150.658291520 _1_ AGT  --- 126 ack 40 [13a 1 2 800] ------- [2:1 1:0 32 1] [49 0] 1 2
r 150.668717247 _2_ AGT  --- 102 tcp 1040 [13a 2 1 800] ------- [1:0 2:1 32 2] [55 0] 1 2
r 150.670842975 _1_ AGT  --- 127 ack 40 [13a 1 2 800] ------- [2:1 1:0 32 1] [50 0] 1 2
r 150.681068702 _2_ AGT  --- 104 tcp 1040 [13a 2 1 800] ------- [1:0 2:1 32 2] [56 0] 1 2
r 150.691075005 _2_ AGT  --- 107 tcp 1040 [13a 2 1 800] ------- [1:0 2:1 32 2] [57 0] 1 2
r 150.701141308 _2_ AGT  --- 110 tcp 1040 [13a 2 1 800] ------- [1:0 2:1 32 2] [58 0] 1 2
r 150.711147611 _2_ AGT  --- 112 tcp 1040 [13a 2 1 800] ------- [1:0 2:1 32 2] [59 0] 1 2
r 150.713293339 _1_ AGT  --- 129 ack 40 [13a 1 2 800] ------- [2:1 1:0 32 1] [51 0] 1 2
r 150.729351915 _2_ AGT  --- 115 tcp 1040 [13a 2 1 800] ------- [1:0 2:1 32 2] [60 0] 1 2
r 150.731417643 _1_ AGT  --- 130 ack 40 [13a 1 2 800] ------- [2:1 1:0 32 1] [52 0] 1 2
r 150.741503370 _2_ AGT  --- 117 tcp 1040 [13a 2 1 800] ------- [1:0 2:1 32 2] [61 0] 1 2
r 150.743649097 _1_ AGT  --- 132 ack 40 [13a 1 2 800] ------- [2:1 1:0 32 1] [53 0] 1 2
r 150.745775400 _1_ AGT  --- 133 ack 40 [13a 1 2 800] ------- [2:1 1:0 32 1] [54 0] 1 2
r 150.747781703 _1_ AGT  --- 135 ack 40 [13a 1 2 800] ------- [2:1 1:0 32 1] [55 0] 1 2
r 150.758047431 _2_ AGT  --- 119 tcp 1040 [13a 2 1 800] ------- [1:0 2:1 32 2] [62 0] 1 2
r 150.760193158 _1_ AGT  --- 138 ack 40 [13a 1 2 800] ------- [2:1 1:0 32 1] [56 0] 1 2
r 150.770198885 _2_ AGT  --- 121 tcp 1040 [13a 2 1 800] ------- [1:0 2:1 32 2] [63 0] 1 2
r 150.772484613 _1_ AGT  --- 139 ack 40 [13a 1 2 800] ------- [2:1 1:0 32 1] [57 0] 1 2
r 150.774650916 _1_ AGT  --- 140 ack 40 [13a 1 2 800] ------- [2:1 1:0 32 1] [58 0] 1 2
r 150.784756643 _2_ AGT  --- 122 tcp 1040 [13a 2 1 800] ------- [1:0 2:1 32 2] [64 0] 1 2
r 150.786922370 _1_ AGT  --- 141 ack 40 [13a 1 2 800] ------- [2:1 1:0 32 1] [59 0] 1 2
r 150.796988098 _2_ AGT  --- 123 tcp 1040 [13a 2 1 800] ------- [1:0 2:1 32 2] [65 0] 1 2
r 150.807054401 _2_ AGT  --- 125 tcp 1040 [13a 2 1 800] ------- [1:0 2:1 32 2] [66 0] 1 2
r 150.809240128 _1_ AGT  --- 143 ack 40 [13a 1 2 800] ------- [2:1 1:0 32 1] [60 0] 1 2
r 150.819445855 _2_ AGT  --- 128 tcp 1040 [13a 2 1 800] ------- [1:0 2:1 32 2] [67 0] 1 2
r 150.821791583 _1_ AGT  --- 145 ack 40 [13a 1 2 800] ------- [2:1 1:0 32 1] [61 0] 1 2
r 150.831857310 _2_ AGT  --- 131 tcp 1040 [13a 2 1 800] ------- [1:0 2:1 32 2] [68 0] 1 2
r 150.833943037 _1_ AGT  --- 149 ack 40 [13a 1 2 800] ------- [2:1 1:0 32 1] [62 0] 1 2
r 150.844108765 _2_ AGT  --- 134 tcp 1040 [13a 2 1 800] ------- [1:0 2:1 32 2] [69 0] 1 2
r 150.854235068 _2_ AGT  --- 137 tcp 1040 [13a 2 1 800] ------- [1:0 2:1 32 2] [70 0] 1 2
r 150.856360795 _1_ AGT  --- 151 ack 40 [13a 1 2 800] ------- [2:1 1:0 32 1] [63 0] 1 2
r 150.858347098 _1_ AGT  --- 154 ack 40 [13a 1 2 800] ------- [2:1 1:0 32 1] [64 0] 1 2
r 150.868412825 _2_ AGT  --- 142 tcp 1040 [13a 2 1 800] ------- [1:0 2:1 32 2] [71 0] 1 2
r 150.870458553 _1_ AGT  --- 156 ack 40 [13a 1 2 800] ------- [2:1 1:0 32 1] [65 0] 1 2
r 150.872464856 _1_ AGT  --- 157 ack 40 [13a 1 2 800] ------- [2:1 1:0 32 1] [66 0] 1 2
r 150.875377159 _1_ AGT  --- 159 ack 40 [13a 1 2 800] ------- [2:1 1:0 32 1] [67 0] 1 2
r 150.877943462 _1_ AGT  --- 161 ack 40 [13a 1 2 800] ------- [2:1 1:0 32 1] [68 0] 1 2
r 150.883885189 _2_ AGT  --- 136 cbr 512 [13a 2 1 800] ------- [0:0 2:0 31 2] [7] 2 3
r 150.886150917 _1_ AGT  --- 163 ack 40 [13a 1 2 800] ------- [2:1 1:0 32 1] [69 0] 1 2
r 150.896176644 _2_ AGT  --- 144 tcp 1040 [13a 2 1 800] ------- [1:0 2:1 32 2] [72 0] 1 2
r 150.906282947 _2_ AGT  --- 146 tcp 1040 [13a 2 1 800] ------- [1:0 2:1 32 2] [73 0] 1 2
r 150.908328674 _1_ AGT  --- 164 ack 40 [13a 1 2 800] ------- [2:1 1:0 32 1] [70 0] 1 2
r 150.910454977 _1_ AGT  --- 167 ack 40 [13a 1 2 800] ------- [2:1 1:0 32 1] [71 0] 1 2
r 150.920700705 _2_ AGT  --- 147 tcp 1040 [13a 2 1 800] ------- [1:0 2:1 32 2] [74 0] 1 2
r 150.922746432 _1_ AGT  --- 173 ack 40 [13a 1 2 800] ------- [2:1 1:0 32 1] [72 0] 1 2
r 150.933072159 _2_ AGT  --- 148 tcp 1040 [13a 2 1 800] ------- [1:0 2:1 32 2] [75 0] 1 2
r 150.935237887 _1_ AGT  --- 174 ack 40 [13a 1 2 800] ------- [2:1 1:0 32 1] [73 0] 1 2
r 150.945523614 _2_ AGT  --- 150 tcp 1040 [13a 2 1 800] ------- [1:0 2:1 32 2] [76 0] 1 2
r 150.947649341 _1_ AGT  --- 177 ack 40 [13a 1 2 800] ------- [2:1 1:0 32 1] [74 0] 1 2
r 150.949835644 _1_ AGT  --- 179 ack 40 [13a 1 2 800] ------- [2:1 1:0 32 1] [75 0] 1 2
r 150.959881372 _2_ AGT  --- 152 tcp 1040 [13a 2 1 800] ------- [1:0 2:1 32 2] [77 0] 1 2
r 150.962047099 _1_ AGT  --- 181 ack 40 [13a 1 2 800] ------- [2:1 1:0 32 1] [76 0] 1 2
r 150.972152826 _2_ AGT  --- 153 tcp 1040 [13a 2 1 800] ------- [1:0 2:1 32 2] [78 0] 1 2
r 150.974198554 _1_ AGT  --- 184 ack 40 [13a 1 2 800] ------- [2:1 1:0 32 1] [77 0] 1 2
r 150.976244857 _1_ AGT  --- 186 ack 40 [13a 1 2 800] ------- [2:1 1:0 32 1] [78 0] 1 2
r 150.986510584 _2_ AGT  --- 155 tcp 1040 [13a 2 1 800] ------- [1:0 2:1 32 2] [79 0] 1 2
r 150.996676887 _2_ AGT  --- 158 tcp 1040 [13a 2 1 800] ------- [1:0 2:1 32 2] [80 0] 1 2
r 150.998802614 _1_ AGT  --- 189 ack 40 [13a 1 2 800] ------- [2:1 1:0 32 1] [79 0] 1 2
r 151.008828342 _2_ AGT  --- 160 tcp 1040 [13a 2 1 800] ------- [1:0 2:1 32 2] [81 0] 1 2
r 151.011294069 _1_ AGT  --- 190 ack 40 [13a 1 2 800] ------- [2:1 1:0 32 1] [80 0] 1 2
r 151.021379796 _2_ AGT  --- 162 tcp 1040 [13a 2 1 800] ------- [1:0 2:1 32 2] [82 0] 1 2
r 151.031506099 _2_ AGT  --- 165 tcp 1040 [13a 2 1 800] ------- [1:0 2:1 32 2] [83 0] 1 2
r 151.033631827 _1_ AGT  --- 192 ack 40 [13a 1 2 800] ------- [2:1 1:0 32 1] [81 0] 1 2
r 151.043817554 _2_ AGT  --- 166 tcp 1040 [13a 2 1 800] ------- [1:0 2:1 32 2] [84 0] 1 2
r 151.045963281 _1_ AGT  --- 194 ack 40 [13a 1 2 800] ------- [2:1 1:0 32 1] [82 0] 1 2
r 151.048349585 _1_ AGT  --- 195 ack 40 [13a 1 2 800] ------- [2:1 1:0 32 1] [83 0] 1 2
r 151.058355312 _2_ AGT  --- 168 tcp 1040 [13a 2 1 800] ------- [1:0 2:1 32 2] [85 0] 1 2
r 151.061928191 _1_ AGT  --- 197 ack 40 [13a 1 2 800] ------- [2:1 1:0 32 1] [84 0] 1 2
r 151.064194494 _1_ AGT  --- 200 ack 40 [13a 1 2 800] ------- [2:1 1:0 32 1] [85 0] 1 2
r 151.074220221 _2_ AGT  --- 169 tcp 1040 [13a 2 1 800] ------- [1:0 2:1 32 2] [86 0] 1 2
r 151.084346524 _2_ AGT  --- 170 tcp 1040 [13a 2 1 800] ------- [1:0 2:1 32 2] [87 0] 1 2
r 151.086612251 _1_ AGT  --- 203 ack 40 [13a 1 2 800] ------- [2:1 1:0 32 1] [86 0] 1 2
r 151.096677979 _2_ AGT  --- 171 tcp 1040 [13a 2 1 800] ------- [1:0 2:1 32 2] [88 0] 1 2
r 151.106924282 _2_ AGT  --- 172 tcp 1040 [13a 2 1 800] ------- [1:0 2:1 32 2] [89 0] 1 2
r 151.109130009 _1_ AGT  --- 204 ack 40 [13a 1 2 800] ------- [2:1 1:0 32 1] [87 0] 1 2
r 151.111176312 _1_ AGT  --- 206 ack 40 [13a 1 2 800] ------- [2:1 1:0 32 1] [88 0] 1 2
r 151.121382040 _2_ AGT  --- 175 tcp 1040 [13a 2 1 800] ------- [1:0 2:1 32 2] [90 0] 1 2
r 151.123527767 _1_ AGT  --- 207 ack 40 [13a 1 2 800] ------- [2:1 1:0 32 1] [89 0] 1 2
r 151.134640646 _2_ AGT  --- 176 tcp 1040 [13a 2 1 800] ------- [1:0 2:1 32 2] [91 0] 1 2
r 151.144926949 _2_ AGT  --- 178 tcp 1040 [13a 2 1 800] ------- [1:0 2:1 32 2] [92 0] 1 2
r 151.154953252 _2_ AGT  --- 180 tcp 1040 [13a 2 1 800] ------- [1:0 2:1 32 2] [93 0] 1 2
r 151.165459555 _2_ AGT  --- 182 tcp 1040 [13a 2 1 800] ------- [1:0 2:1 32 2] [94 0] 1 2
r 151.167545282 _1_ AGT  --- 210 ack 40 [13a 1 2 800] ------- [2:1 1:0 32 1] [90 0] 1 2
r 151.177571010 _2_ AGT  --- 183 tcp 1040 [13a 2 1 800] ------- [1:0 2:1 32 2] [95 0] 1 2
r 151.179776737 _1_ AGT  --- 212 ack 40 [13a 1 2 800] ------- [2:1 1:0 32 1] [91 0] 1 2
r 151.189982464 _2_ AGT  --- 185 tcp 1040 [13a 2 1 800] ------- [1:0 2:1 32 2] [96 0] 1 2
r 151.192168192 _1_ AGT  --- 213 ack 40 [13a 1 2 800] ------- [2:1 1:0 32 1] [92 0] 1 2
r 151.202513919 _2_ AGT  --- 187 tcp 1040 [13a 2 1 800] ------- [1:0 2:1 32 2] [97 0] 1 2
r 151.204519646 _1_ AGT  --- 214 ack 40 [13a 1 2 800] ------- [2:1 1:0 32 1] [93 0] 1 2
r 151.214845374 _2_ AGT  --- 188 tcp 1040 [13a 2 1 800] ------- [1:0 2:1 32 2] [98 0] 1 2
r 151.217031101 _1_ AGT  --- 215 ack 40 [13a 1 2 800] ------- [2:1 1:0 32 1] [94 0] 1 2
r 151.219097404 _1_ AGT  --- 217 ack 40 [13a 1 2 800] ------- [2:1 1:0 32 1] [95 0] 1 2
r 151.230230283 _2_ AGT  --- 191 tcp 1040 [13a 2 1 800] ------- [1:0 2:1 32 2] [99 0] 1 2
r 151.232456010 _1_ AGT  --- 219 ack 40 [13a 1 2 800] ------- [2:1 1:0 32 1] [96 0] 1 2
r 151.242461737 _2_ AGT  --- 193 tcp 1040 [13a 2 1 800] ------- [1:0 2:1 32 2] [100 0] 1 2
r 151.244807465 _1_ AGT  --- 221 ack 40 [13a 1 2 800] ------- [2:1 1:0 32 1] [97 0] 1 2
r 151.254893192 _2_ AGT  --- 196 tcp 1040 [13a 2 1 800] ------- [1:0 2:1 32 2] [101 0] 1 2
r 151.265059495 _2_ AGT  --- 198 tcp 1040 [13a 2 1 800] ------- [1:0 2:1 32 2] [102 0] 1 2
r 151.267185222 _1_ AGT  --- 223 ack 40 [13a 1 2 800] ------- [2:1 1:0 32 1] [98 0] 1 2
r 151.277330950 _2_ AGT  --- 199 tcp 1040 [13a 2 1 800] ------- [1:0 2:1 32 2] [103 0] 1 2
r 151.279516677 _1_ AGT  --- 226 ack 40 [13a 1 2 800] ------- [2:1 1:0 32 1] [99 0] 1 2
r 151.281702980 _1_ AGT  --- 228 ack 40 [13a 1 2 800] ------- [2:1 1:0 32 1] [100 0] 1 2
r 151.291768708 _2_ AGT  --- 201 tcp 1040 [13a 2 1 800] ------- [1:0 2:1 32 2] [104 0] 1 2
r 151.293814435 _1_ AGT  --- 230 ack 40 [13a 1 2 800] ------- [2:1 1:0 32 1] [101 0] 1 2
r 151.296240738 _1_ AGT  --- 231 ack 40 [13a 1 2 800] ------- [2:1 1:0 32 1] [102 0] 1 2
r 151.298287041 _1_ AGT  --- 233 ack 40 [13a 1 2 800] ------- [2:1 1:0 32 1] [103 0] 1 2
r 151.308312768 _2_ AGT  --- 202 tcp 1040 [13a 2 1 800] ------- [1:0 2:1 32 2] [105 0] 1 2
r 151.318319071 _2_ AGT  --- 205 tcp 1040 [13a 2 1 800] ------- [1:0 2:1 32 2] [106 0] 1 2
r 151.320384799 _1_ AGT  --- 236 ack 40 [13a 1 2 800] ------- [2:1 1:0 32 1] [104 0] 1 2
r 151.322631102 _1_ AGT  --- 240 ack 40 [13a 1 2 800] ------- [2:1 1:0 32 1] [105 0] 1 2
r 151.332696829 _2_ AGT  --- 208 tcp 1040 [13a 2 1 800] ------- [1:0 2:1 32 2] [107 0] 1 2
r 151.334862556 _1_ AGT  --- 241 ack 40 [13a 1 2 800] ------- [2:1 1:0 32 1] [106 0] 1 2
r 151.345248284 _2_ AGT  --- 209 tcp 1040 [13a 2 1 800] ------- [1:0 2:1 32 2] [108 0] 1 2
r 151.347274011 _1_ AGT  --- 244 ack 40 [13a 1 2 800] ------- [2:1 1:0 32 1] [107 0] 1 2
r 151.357319738 _2_ AGT  --- 211 tcp 1040 [13a 2 1 800] ------- [1:0 2:1 32 2] [109 0] 1 2
r 151.359345466 _1_ AGT  --- 246 ack 40 [13a 1 2 800] ------- [2:1 1:0 32 1] [108 0] 1 2
r 151.369351193 _2_ AGT  --- 216 tcp 1040 [13a 2 1 800] ------- [1:0 2:1 32 2] [110 0] 1 2
r 151.379697496 _2_ AGT  --- 218 tcp 1040 [13a 2 1 800] ------- [1:0 2:1 32 2] [111 0] 1 2
r 151.381763223 _1_ AGT  --- 248 ack 40 [13a 1 2 800] ------- [2:1 1:0 32 1] [109 0] 1 2
r 151.391788951 _2_ AGT  --- 220 tcp 1040 [13a 2 1 800] ------- [1:0 2:1 32 2] [112 0] 1 2
r 151.393794678 _1_ AGT  --- 250 ack 40 [13a 1 2 800] ------- [2:1 1:0 32 1] [110 0] 1 2
r 151.403960405 _2_ AGT  --- 222 tcp 1040 [13a 2 1 800] ------- [1:0 2:1 32 2] [113 0] 1 2
r 151.406186133 _1_ AGT  --- 251 ack 40 [13a 1 2 800] ------- [2:1 1:0 32 1] [111 0] 1 2
r 151.416231860 _2_ AGT  --- 224 tcp 1040 [13a 2 1 800] ------- [1:0 2:1 32 2] [114 0] 1 2
r 151.418477587 _1_ AGT  --- 253 ack 40 [13a 1 2 800] ------- [2:1 1:0 32 1] [112 0] 1 2
r 151.428503315 _2_ AGT  --- 225 tcp 1040 [13a 2 1 800] ------- [1:0 2:1 32 2] [115 0] 1 2
r 151.430729042 _1_ AGT  --- 255 ack 40 [13a 1 2 800] ------- [2:1 1:0 32 1] [113 0] 1 2
r 151.432875345 _1_ AGT  --- 257 ack 40 [13a 1 2 800] ------- [2:1 1:0 32 1] [114 0] 1 2
r 151.442981072 _2_ AGT  --- 227 tcp 1040 [13a 2 1 800] ------- [1:0 2:1 32 2] [116 0] 1 2
r 151.453187375 _2_ AGT  --- 229 tcp 1040 [13a 2 1 800] ------- [1:0 2:1 32 2] [117 0] 1 2
r 151.455413103 _1_ AGT  --- 259 ack 40 [13a 1 2 800] ------- [2:1 1:0 32 1] [115 0] 1 2
r 151.465658830 _2_ AGT  --- 232 tcp 1040 [13a 2 1 800] ------- [1:0 2:1 32 2] [118 0] 1 2
r 151.467964557 _1_ AGT  --- 262 ack 40 [13a 1 2 800] ------- [2:1 1:0 32 1] [116 0] 1 2
r 151.478210285 _2_ AGT  --- 234 tcp 1040 [13a 2 1 800] ------- [1:0 2:1 32 2] [119 0] 1 2
r 151.480296012 _1_ AGT  --- 263 ack 40 [13a 1 2 800] ------- [2:1 1:0 32 1] [117 0] 1 2
r 151.490581739 _2_ AGT  --- 235 tcp 1040 [13a 2 1 800] ------- [1:0 2:1 32 2] [120 0] 1 2
r 151.492707467 _1_ AGT  --- 265 ack 40 [13a 1 2 800] ------- [2:1 1:0 32 1] [118 0] 1 2
r 151.503013194 _2_ AGT  --- 237 tcp 1040 [13a 2 1 800] ------- [1:0 2:1 32 2] [121 0] 1 2
r 151.505038921 _1_ AGT  --- 267 ack 40 [13a 1 2 800] ------- [2:1 1:0 32 1] [119 0] 1 2
r 151.515244649 _2_ AGT  --- 238 tcp 1040 [13a 2 1 800] ------- [1:0 2:1 32 2] [122 0] 1 2
r 151.517350376 _1_ AGT  --- 269 ack 40 [13a 1 2 800] ------- [2:1 1:0 32 1] [120 0] 1 2
r 151.527376103 _2_ AGT  --- 239 tcp 1040 [13a 2 1 800] ------- [1:0 2:1 32 2] [123 0] 1 2
r 151.537442406 _2_ AGT  --- 242 tcp 1040 [13a 2 1 800] ------- [1:0 2:1 32 2] [124 0] 1 2
r 151.547628709 _2_ AGT  --- 243 tcp 1040 [13a 2 1 800] ------- [1:0 2:1 32 2] [125 0] 1 2
r 151.557735012 _2_ AGT  --- 245 tcp 1040 [13a 2 1 800] ------- [1:0 2:1 32 2] [126 0] 1 2
r 151.559860740 _1_ AGT  --- 271 ack 40 [13a 1 2 800] ------- [2:1 1:0 32 1] [121 0] 1 2
r 151.570266467 _2_ AGT  --- 247 tcp 1040 [13a 2 1 800] ------- [1:0 2:1 32 2] [127 0] 1 2
r 151.572412194 _1_ AGT  --- 273 ack 40 [13a 1 2 800] ------- [2:1 1:0 32 1] [122 0] 1 2
r 151.582637922 _2_ AGT  --- 249 tcp 1040 [13a 2 1 800] ------- [1:0 2:1 32 2] [128 0] 1 2
r 151.592664225 _2_ AGT  --- 252 tcp 1040 [13a 2 1 800] ------- [1:0 2:1 32 2] [129 0] 1 2
r 151.594689952 _1_ AGT  --- 275 ack 40 [13a 1 2 800] ------- [2:1 1:0 32 1] [123 0] 1 2
r 151.605055679 _2_ AGT  --- 254 tcp 1040 [13a 2 1 800] ------- [1:0 2:1 32 2] [130 0] 1 2
r 151.615141983 _2_ AGT  --- 256 tcp 1040 [13a 2 1 800] ------- [1:0 2:1 32 2] [131 0] 1 2
r 151.617147710 _1_ AGT  --- 276 ack 40 [13a 1 2 800] ------- [2:1 1:0 32 1] [124 0] 1 2
r 151.619234013 _1_ AGT  --- 277 ack 40 [13a 1 2 800] ------- [2:1 1:0 32 1] [125 0] 1 2
r 151.621600316 _1_ AGT  --- 278 ack 40 [13a 1 2 800] ------- [2:1 1:0 32 1] [126 0] 1 2
r 151.631686043 _2_ AGT  --- 258 tcp 1040 [13a 2 1 800] ------- [1:0 2:1 32 2] [132 0] 1 2
r 151.641832346 _2_ AGT  --- 260 tcp 1040 [13a 2 1 800] ------- [1:0 2:1 32 2] [133 0] 1 2
r 151.644138074 _1_ AGT  --- 280 ack 40 [13a 1 2 800] ------- [2:1 1:0 32 1] [127 0] 1 2
r 151.654323801 _2_ AGT  --- 261 tcp 1040 [13a 2 1 800] ------- [1:0 2:1 32 2] [134 0] 1 2
r 151.664310104 _2_ AGT  --- 264 tcp 1040 [13a 2 1 800] ------- [1:0 2:1 32 2] [135 0] 1 2
r 151.666595831 _1_ AGT  --- 282 ack 40 [13a 1 2 800] ------- [2:1 1:0 32 1] [128 0] 1 2
r 151.676801559 _2_ AGT  --- 266 tcp 1040 [13a 2 1 800] ------- [1:0 2:1 32 2] [136 0] 1 2
r 151.679027286 _1_ AGT  --- 283 ack 40 [13a 1 2 800] ------- [2:1 1:0 32 1] [129 0] 1 2
r 151.681133589 _1_ AGT  --- 285 ack 40 [13a 1 2 800] ------- [2:1 1:0 32 1] [130 0] 1 2
r 151.691339316 _2_ AGT  --- 268 tcp 1040 [13a 2 1 800] ------- [1:0 2:1 32 2] [137 0] 1 2
r 151.693705044 _1_ AGT  --- 286 ack 40 [13a 1 2 800] ------- [2:1 1:0 32 1] [131 0] 1 2
r 151.697117347 _1_ AGT  --- 290 ack 40 [13a 1 2 800] ------- [2:1 1:0 32 1] [132 0] 1 2
r 151.699443650 _1_ AGT  --- 291 ack 40 [13a 1 2 800] ------- [2:1 1:0 32 1] [133 0] 1 2
r 151.701529953 _1_ AGT  --- 293 ack 40 [13a 1 2 800] ------- [2:1 1:0 32 1] [134 0] 1 2
r 151.711695680 _2_ AGT  --- 270 tcp 1040 [13a 2 1 800] ------- [1:0 2:1 32 2] [138 0] 1 2
r 151.721861983 _2_ AGT  --- 272 tcp 1040 [13a 2 1 800] ------- [1:0 2:1 32 2] [139 0] 1 2
r 151.731928287 _2_ AGT  --- 274 tcp 1040 [13a 2 1 800] ------- [1:0 2:1 32 2] [140 0] 1 2
r 151.733934014 _1_ AGT  --- 294 ack 40 [13a 1 2 800] ------- [2:1 1:0 32 1] [135 0] 1 2
r 151.736020317 _1_ AGT  --- 296 ack 40 [13a 1 2 800] ------- [2:1 1:0 32 1] [136 0] 1 2
r 151.746166044 _2_ AGT  --- 279 tcp 1040 [13a 2 1 800] ------- [1:0 2:1 32 2] [141 0] 1 2
r 151.748371772 _1_ AGT  --- 299 ack 40 [13a 1 2 800] ------- [2:1 1:0 32 1] [137 0] 1 2
r 151.758617499 _2_ AGT  --- 281 tcp 1040 [13a 2 1 800] ------- [1:0 2:1 32 2] [142 0] 1 2
r 151.760783226 _1_ AGT  --- 304 ack 40 [13a 1 2 800] ------- [2:1 1:0 32 1] [138 0] 1 2
r 151.762829529 _1_ AGT  --- 305 ack 40 [13a 1 2 800] ------- [2:1 1:0 32 1] [139 0] 1 2
r 151.773115257 _2_ AGT  --- 284 tcp 1040 [13a 2 1 800] ------- [1:0 2:1 32 2] [143 0] 1 2
r 151.775280984 _1_ AGT  --- 306 ack 40 [13a 1 2 800] ------- [2:1 1:0 32 1] [140 0] 1 2
r 151.785366711 _2_ AGT  --- 287 tcp 1040 [13a 2 1 800] ------- [1:0 2:1 32 2] [144 0] 1 2
r 151.795433014 _2_ AGT  --- 288 tcp 1040 [13a 2 1 800] ------- [1:0 2:1 32 2] [145 0] 1 2
r 151.805579317 _2_ AGT  --- 289 tcp 1040 [13a 2 1 800] ------- [1:0 2:1 32 2] [146 0] 1 2
r 151.807645045 _1_ AGT  --- 309 ack 40 [13a 1 2 800] ------- [2:1 1:0 32 1] [141 0] 1 2
r 151.817750772 _2_ AGT  --- 292 tcp 1040 [13a 2 1 800] ------- [1:0 2:1 32 2] [147 0] 1 2
r 151.827797075 _2_ AGT  --- 295 tcp 1040 [13a 2 1 800] ------- [1:0 2:1 32 2] [148 0] 1 2
r 151.837783378 _2_ AGT  --- 297 tcp 1040 [13a 2 1 800] ------- [1:0 2:1 32 2] [149 0] 1 2
r 151.840069106 _1_ AGT  --- 311 ack 40 [13a 1 2 800] ------- [2:1 1:0 32 1] [142 0] 1 2
r 151.842055409 _1_ AGT  --- 314 ack 40 [13a 1 2 800] ------- [2:1 1:0 32 1] [143 0] 1 2
r 151.852121136 _2_ AGT  --- 298 tcp 1040 [13a 2 1 800] ------- [1:0 2:1 32 2] [150 0] 1 2
r 151.854486863 _1_ AGT  --- 316 ack 40 [13a 1 2 800] ------- [2:1 1:0 32 1] [144 0] 1 2
r 151.864552591 _2_ AGT  --- 300 tcp 1040 [13a 2 1 800] ------- [1:0 2:1 32 2] [151 0] 1 2
r 151.867038318 _1_ AGT  --- 317 ack 40 [13a 1 2 800] ------- [2:1 1:0 32 1] [145 0] 1 2
r 151.877084045 _2_ AGT  --- 301 tcp 1040 [13a 2 1 800] ------- [1:0 2:1 32 2] [152 0] 1 2
r 151.879209772 _1_ AGT  --- 318 ack 40 [13a 1 2 800] ------- [2:1 1:0 32 1] [146 0] 1 2
r 151.889475500 _2_ AGT  --- 302 tcp 1040 [13a 2 1 800] ------- [1:0 2:1 32 2] [153 0] 1 2
r 151.893288379 _1_ AGT  --- 320 ack 40 [13a 1 2 800] ------- [2:1 1:0 32 1] [147 0] 1 2
r 151.903614106 _2_ AGT  --- 303 tcp 1040 [13a 2 1 800] ------- [1:0 2:1 32 2] [154 0] 1 2
r 151.905659833 _1_ AGT  --- 321 ack 40 [13a 1 2 800] ------- [2:1 1:0 32 1] [148 0] 1 2
r 151.907646136 _1_ AGT  --- 322 ack 40 [13a 1 2 800] ------- [2:1 1:0 32 1] [149 0] 1 2
r 151.917831864 _2_ AGT  --- 307 tcp 1040 [13a 2 1 800] ------- [1:0 2:1 32 2] [155 0] 1 2
r 151.919877591 _1_ AGT  --- 325 ack 40 [13a 1 2 800] ------- [2:1 1:0 32 1] [150 0] 1 2
r 151.930023318 _2_ AGT  --- 308 tcp 1040 [13a 2 1 800] ------- [1:0 2:1 32 2] [156 0] 1 2
r 151.940229621 _2_ AGT  --- 310 tcp 1040 [13a 2 1 800] ------- [1:0 2:1 32 2] [157 0] 1 2
r 151.950375924 _2_ AGT  --- 312 tcp 1040 [13a 2 1 800] ------- [1:0 2:1 32 2] [158 0] 1 2
r 151.962148228 _2_ AGT  --- 313 tcp 1040 [13a 2 1 800] ------- [1:0 2:1 32 2] [159 0] 1 2
r 151.964333955 _1_ AGT  --- 327 ack 40 [13a 1 2 800] ------- [2:1 1:0 32 1] [151 0] 1 2
r 151.967906258 _1_ AGT  --- 329 ack 40 [13a 1 2 800] ------- [2:1 1:0 32 1] [152 0] 1 2
r 151.978251985 _2_ AGT  --- 315 tcp 1040 [13a 2 1 800] ------- [1:0 2:1 32 2] [160 0] 1 2
r 151.988298288 _2_ AGT  --- 319 tcp 1040 [13a 2 1 800] ------- [1:0 2:1 32 2] [161 0] 1 2
r 151.990304016 _1_ AGT  --- 331 ack 40 [13a 1 2 800] ------- [2:1 1:0 32 1] [153 0] 1 2
r 152.000469743 _2_ AGT  --- 323 tcp 1040 [13a 2 1 800] ------- [1:0 2:1 32 2] [162 0] 1 2
r 152.002495470 _1_ AGT  --- 333 ack 40 [13a 1 2 800] ------- [2:1 1:0 32 1] [154 0] 1 2
r 152.012841198 _2_ AGT  --- 324 tcp 1040 [13a 2 1 800] ------- [1:0 2:1 32 2] [163 0] 1 2
r 152.014906925 _1_ AGT  --- 336 ack 40 [13a 1 2 800] ------- [2:1 1:0 32 1] [155 0] 1 2
r 152.017153228 _1_ AGT  --- 338 ack 40 [13a 1 2 800] ------- [2:1 1:0 32 1] [156 0] 1 2
r 152.019299531 _1_ AGT  --- 339 ack 40 [13a 1 2 800] ------- [2:1 1:0 32 1] [157 0] 1 2
r 152.029345258 _2_ AGT  --- 326 tcp 1040 [13a 2 1 800] ------- [1:0 2:1 32 2] [164 0] 1 2
r 152.031350986 _1_ AGT  --- 340 ack 40 [13a 1 2 800] ------- [2:1 1:0 32 1] [158 0] 1 2
r 152.041396713 _2_ AGT  --- 328 tcp 1040 [13a 2 1 800] ------- [1:0 2:1 32 2] [165 0] 1 2
r 152.051443016 _2_ AGT  --- 330 tcp 1040 [13a 2 1 800] ------- [1:0 2:1 32 2] [166 0] 1 2
r 152.053648743 _1_ AGT  --- 341 ack 40 [13a 1 2 800] ------- [2:1 1:0 32 1] [159 0] 1 2
r 152.063694471 _2_ AGT  --- 332 tcp 1040 [13a 2 1 800] ------- [1:0 2:1 32 2] [167 0] 1 2
r 152.073880774 _2_ AGT  --- 334 tcp 1040 [13a 2 1 800] ------- [1:0 2:1 32 2] [168 0] 1 2