s 1.000000000 _0_ AGT  --- 0 cbr 1000 [0 0 0 0] ------- [0:0 2:0 32 0] [0] 0 0
r 1.000000000 _0_ RTR  --- 0 cbr 1000 [0 0 0 0] ------- [0:0 2:0 32 0] [0] 0 0
s 1.000000000 _2_ AGT  --- 1 cbr 1000 [0 0 0 0] ------- [2:1 0:1 32 0] [0] 0 0
r 1.000000000 _2_ RTR  --- 1 cbr 1000 [0 0 0 0] ------- [2:1 0:1 32 0] [0] 0 0
s 1.000000000 _2_ AGT  --- 2 cbr 1000 [0 0 0 0] ------- [2:2 1:0 32 0] [0] 0 0
r 1.000000000 _2_ RTR  --- 2 cbr 1000 [0 0 0 0] ------- [2:2 1:0 32 0] [0] 0 0
s 1.000000000 _1_ AGT  --- 3 cbr 1000 [0 0 0 0] ------- [1:1 2:3 32 0] [0] 0 0
r 1.000000000 _1_ RTR  --- 3 cbr 1000 [0 0 0 0] ------- [1:1 2:3 32 0] [0] 0 0
s 1.000000000 _1_ AGT  --- 4 cbr 1000 [0 0 0 0] ------- [1:2 0:2 32 0] [0] 0 0
r 1.000000000 _1_ RTR  --- 4 cbr 1000 [0 0 0 0] ------- [1:2 0:2 32 0] [0] 0 0
s 1.000000000 _0_ AGT  --- 5 cbr 1000 [0 0 0 0] ------- [0:3 1:3 32 0] [0] 0 0
r 1.000000000 _0_ RTR  --- 5 cbr 1000 [0 0 0 0] ------- [0:3 1:3 32 0] [0] 0 0
s 1.000000000 _0_ RTR  --- 0 AODV 48 [0 0 0 0] ------- [0:255 -1:255 30 0] [0x2 1 1 [2 0] [0 4]] (REQUEST)
s 1.000000000 _2_ RTR  --- 0 AODV 48 [0 0 0 0] ------- [2:255 -1:255 30 0] [0x2 1 1 [0 0] [2 4]] (REQUEST)
s 1.000000000 _2_ RTR  --- 0 AODV 48 [0 0 0 0] ------- [2:255 -1:255 30 0] [0x2 1 2 [1 0] [2 6]] (REQUEST)
s 1.000000000 _1_ RTR  --- 0 AODV 48 [0 0 0 0] ------- [1:255 -1:255 30 0] [0x2 1 1 [2 0] [1 4]] (REQUEST)
s 1.000000000 _1_ RTR  --- 0 AODV 48 [0 0 0 0] ------- [1:255 -1:255 30 0] [0x2 1 2 [0 0] [1 6]] (REQUEST)
s 1.000000000 _0_ RTR  --- 0 AODV 48 [0 0 0 0] ------- [0:255 -1:255 30 0] [0x2 1 2 [1 0] [0 6]] (REQUEST)
r 1.000988527 _1_ RTR  --- 0 AODV 48 [0 ffffffff 2 800] ------- [2:255 -1:255 30 0] [0x2 1 1 [0 0] [2 4]] (REQUEST)
s 1.000988527 _1_ RTR  --- 3 cbr 1020 [0 0 0 0] ------- [1:1 2:3 30 2] [0] 0 0
r 1.002186527 _1_ RTR  --- 0 AODV 48 [0 ffffffff 2 800] ------- [2:255 -1:255 30 0] [0x2 1 2 [1 0] [2 6]] (REQUEST)
s 1.002186527 _1_ RTR  --- 0 AODV 44 [0 0 0 0] ------- [1:255 2:255 30 2] [0x4 1 [1 8] 10.000000] (REPLY)
D 1.002186527 _1_ IFQ  ARP 3 cbr 1020 [0 0 1 800] ------- [1:1 2:3 30 2] [0] 0 0
r 1.003325054 _2_ RTR  --- 0 AODV 48 [0 ffffffff 1 800] ------- [1:255 -1:255 30 0] [0x2 1 1 [2 0] [1 4]] (REQUEST)
r 1.003325054 _0_ RTR  --- 0 AODV 48 [0 ffffffff 1 800] ------- [1:255 -1:255 30 0] [0x2 1 1 [2 0] [1 4]] (REQUEST)
s 1.003325054 _2_ RTR  --- 2 cbr 1020 [0 0 0 0] ------- [2:2 1:0 30 1] [0] 0 0
s 1.003325054 _2_ RTR  --- 0 AODV 44 [0 0 0 0] ------- [2:255 1:255 30 1] [0x4 1 [2 8] 10.000000] (REPLY)
D 1.003325054 _2_ IFQ  ARP 2 cbr 1020 [0 0 2 800] ------- [2:2 1:0 30 1] [0] 0 0
s 1.003325054 _0_ RTR  --- 5 cbr 1020 [0 0 0 0] ------- [0:3 1:3 30 1] [0] 0 0
r 1.004383054 _2_ RTR  --- 0 AODV 48 [0 ffffffff 1 800] ------- [1:255 -1:255 30 0] [0x2 1 2 [0 0] [1 6]] (REQUEST)
r 1.004383054 _0_ RTR  --- 0 AODV 48 [0 ffffffff 1 800] ------- [1:255 -1:255 30 0] [0x2 1 2 [0 0] [1 6]] (REQUEST)
s 1.004383054 _0_ RTR  --- 0 AODV 44 [0 0 0 0] ------- [0:255 1:255 30 1] [0x4 1 [0 8] 10.000000] (REPLY)
D 1.004383054 _0_ IFQ  ARP 5 cbr 1020 [0 0 0 800] ------- [0:3 1:3 30 1] [0] 0 0
s 1.005400261 _1_ RTR  --- 0 AODV 48 [0 ffffffff 2 800] ------- [1:255 -1:255 29 0] [0x2 2 1 [0 0] [2 4]] (REQUEST)
s 1.007473845 _2_ RTR  --- 0 AODV 48 [0 ffffffff 1 800] ------- [2:255 -1:255 29 0] [0x2 2 2 [0 0] [1 6]] (REQUEST)
r 1.007642635 _1_ RTR  --- 0 AODV 48 [0 ffffffff 0 800] ------- [0:255 -1:255 30 0] [0x2 1 1 [2 0] [0 4]] (REQUEST)
s 1.007642635 _1_ RTR  --- 4 cbr 1020 [0 0 0 0] ------- [1:2 0:2 30 0] [0] 0 0
s 1.007642635 _1_ RTR  --- 0 AODV 44 [0 0 0 0] ------- [1:255 0:255 30 0] [0x4 2 [2 6] 9.000000] (REPLY)
D 1.007642635 _1_ IFQ  ARP 4 cbr 1020 [0 0 1 800] ------- [1:2 0:2 30 0] [0] 0 0
r 1.008900635 _1_ RTR  --- 0 AODV 48 [0 ffffffff 0 800] ------- [0:255 -1:255 30 0] [0x2 1 2 [1 0] [0 6]] (REQUEST)
s 1.008900635 _1_ RTR  --- 0 AODV 44 [0 0 0 0] ------- [1:255 0:255 30 0] [0x4 1 [1 10] 10.000000] (REPLY)
D 1.008900635 _1_ IFQ  ARP 0 AODV 44 [0 0 1 800] ------- [1:255 0:255 30 0] [0x4 2 [2 6] 9.000000] (REPLY)
r 1.009839162 _2_ RTR  --- 0 AODV 48 [0 ffffffff 1 800] ------- [1:255 -1:255 29 0] [0x2 2 1 [0 0] [2 4]] (REQUEST)
r 1.009839162 _0_ RTR  --- 0 AODV 48 [0 ffffffff 1 800] ------- [1:255 -1:255 29 0] [0x2 2 1 [0 0] [2 4]] (REQUEST)
s 1.009839162 _0_ RTR  --- 0 cbr 1020 [0 0 0 0] ------- [0:0 2:0 30 1] [0] 0 0
D 1.009839162 _0_ IFQ  ARP 0 AODV 44 [0 0 0 800] ------- [0:255 1:255 30 1] [0x4 1 [0 8] 10.000000] (REPLY)
s 1.009839162 _0_ RTR  --- 0 AODV 44 [0 0 0 0] ------- [0:255 2:255 30 1] [0x4 1 [0 10] 10.000000] (REPLY)
D 1.009839162 _0_ RTR  CBK 0 cbr 1020 [0 0 0 800] ------- [0:0 2:0 30 1] [0] 0 0
D 1.009839162 _0_ IFQ  ARP 0 AODV 44 [0 0 0 800] ------- [0:255 2:255 30 1] [0x4 1 [0 10] 10.000000] (REPLY)
s 1.009839162 _0_ RTR  --- 0 AODV 40 [0 0 0 0] ------- [0:255 -1:255 1 0] [0x8 2 [1 2] 0.000000] (ERROR)
s 1.011489815 _0_ RTR  --- 0 AODV 48 [0 ffffffff 1 800] ------- [0:255 -1:255 29 0] [0x2 2 1 [2 0] [1 4]] (REQUEST)
r 1.012845270 _2_ RTR  --- 0 AODV 44 [13a 2 1 800] ------- [1:255 2:255 30 2] [0x4 1 [1 8] 10.000000] (REPLY)
r 1.015934852 _1_ RTR  --- 0 AODV 48 [0 ffffffff 0 800] ------- [0:255 -1:255 29 0] [0x2 2 1 [2 0] [1 4]] (REQUEST)
r 1.019528014 _1_ RTR  --- 0 AODV 44 [13a 1 2 800] ------- [2:255 1:255 30 1] [0x4 1 [2 8] 10.000000] (REPLY)
r 1.020827014 _1_ RTR  --- 0 AODV 40 [0 ffffffff 0 800] ------- [0:255 -1:255 1 0] [0x8 2 [1 2] 0.000000] (ERROR)
r 1.022510595 _0_ RTR  --- 0 AODV 44 [13a 0 1 800] ------- [1:255 0:255 30 0] [0x4 1 [1 10] 10.000000] (REPLY)
s 1.080000000 _0_ AGT  --- 6 cbr 1000 [0 0 0 0] ------- [0:0 2:0 32 0] [1] 0 0
r 1.080000000 _0_ RTR  --- 6 cbr 1000 [0 0 0 0] ------- [0:0 2:0 32 0] [1] 0 0
s 1.080000000 _2_ AGT  --- 7 cbr 1000 [0 0 0 0] ------- [2:1 0:1 32 0] [1] 0 0
r 1.080000000 _2_ RTR  --- 7 cbr 1000 [0 0 0 0] ------- [2:1 0:1 32 0] [1] 0 0
s 1.080000000 _2_ AGT  --- 8 cbr 1000 [0 0 0 0] ------- [2:2 1:0 32 0] [1] 0 0
r 1.080000000 _2_ RTR  --- 8 cbr 1000 [0 0 0 0] ------- [2:2 1:0 32 0] [1] 0 0
s 1.080000000 _1_ AGT  --- 9 cbr 1000 [0 0 0 0] ------- [1:1 2:3 32 0] [1] 0 0
r 1.080000000 _1_ RTR  --- 9 cbr 1000 [0 0 0 0] ------- [1:1 2:3 32 0] [1] 0 0
s 1.080000000 _1_ AGT  --- 10 cbr 1000 [0 0 0 0] ------- [1:2 0:2 32 0] [1] 0 0
r 1.080000000 _1_ RTR  --- 10 cbr 1000 [0 0 0 0] ------- [1:2 0:2 32 0] [1] 0 0
s 1.080000000 _0_ AGT  --- 11 cbr 1000 [0 0 0 0] ------- [0:3 1:3 32 0] [1] 0 0
r 1.080000000 _0_ RTR  --- 11 cbr 1000 [0 0 0 0] ------- [0:3 1:3 32 0] [1] 0 0
s 1.080000000 _0_ RTR  --- 0 AODV 48 [0 0 0 0] ------- [0:255 -1:255 4 0] [0x2 1 3 [2 5] [0 14]] (REQUEST)
s 1.080000000 _2_ RTR  --- 8 cbr 1020 [0 0 0 0] ------- [2:2 1:0 30 1] [1] 0 0
s 1.080000000 _1_ RTR  --- 9 cbr 1020 [0 0 0 0] ------- [1:1 2:3 30 2] [1] 0 0
s 1.080000000 _1_ RTR  --- 10 cbr 1020 [0 0 0 0] ------- [1:2 0:2 30 0] [1] 0 0
s 1.080000000 _0_ RTR  --- 11 cbr 1020 [0 0 0 0] ------- [0:3 1:3 30 1] [1] 0 0
r 1.089461581 _2_ AGT  --- 9 cbr 1020 [13a 2 1 800] ------- [1:1 2:3 30 2] [1] 1 0
r 1.099247689 _0_ AGT  --- 10 cbr 1020 [13a 0 1 800] ------- [1:2 0:2 30 0] [1] 1 0
r 1.100600216 _1_ RTR  --- 0 AODV 48 [0 ffffffff 0 800] ------- [0:255 -1:255 4 0] [0x2 1 3 [2 5] [0 14]] (REQUEST)
s 1.100600216 _1_ RTR  --- 0 AODV 44 [0 0 0 0] ------- [1:255 0:255 30 0] [0x4 2 [2 8] 9.000000] (REPLY)
r 1.102363798 _0_ RTR  --- 0 AODV 44 [13a 0 1 800] ------- [1:255 0:255 30 0] [0x4 2 [2 8] 9.000000] (REPLY)
s 1.102363798 _0_ RTR  --- 6 cbr 1020 [0 0 0 0] ------- [0:0 2:0 30 1] [1] 0 0
r 1.112309379 _1_ AGT  --- 11 cbr 1020 [13a 1 0 800] ------- [0:3 1:3 30 1] [1] 1 0
r 1.122155487 _1_ RTR  --- 6 cbr 1020 [13a 1 0 800] ------- [0:0 2:0 30 1] [1] 1 0
f 1.122155487 _1_ RTR  --- 6 cbr 1020 [13a 1 0 800] ------- [0:0 2:0 29 2] [1] 1 0
r 1.132101068 _2_ AGT  --- 6 cbr 1020 [13a 2 1 800] ------- [0:0 2:0 29 2] [1] 2 0
r 1.141826649 _1_ AGT  --- 8 cbr 1020 [13a 1 2 800] ------- [2:2 1:0 30 1] [1] 1 0
s 1.160000000 _0_ AGT  --- 12 cbr 1000 [0 0 0 0] ------- [0:0 2:0 32 0] [2] 0 0
r 1.160000000 _0_ RTR  --- 12 cbr 1000 [0 0 0 0] ------- [0:0 2:0 32 0] [2] 0 0
s 1.160000000 _2_ AGT  --- 13 cbr 1000 [0 0 0 0] ------- [2:1 0:1 32 0] [2] 0 0
r 1.160000000 _2_ RTR  --- 13 cbr 1000 [0 0 0 0] ------- [2:1 0:1 32 0] [2] 0 0
s 1.160000000 _2_ AGT  --- 14 cbr 1000 [0 0 0 0] ------- [2:2 1:0 32 0] [2] 0 0
r 1.160000000 _2_ RTR  --- 14 cbr 1000 [0 0 0 0] ------- [2:2 1:0 32 0] [2] 0 0
s 1.160000000 _1_ AGT  --- 15 cbr 1000 [0 0 0 0] ------- [1:1 2:3 32 0] [2] 0 0
r 1.160000000 _1_ RTR  --- 15 cbr 1000 [0 0 0 0] ------- [1:1 2:3 32 0] [2] 0 0
s 1.160000000 _1_ AGT  --- 16 cbr 1000 [0 0 0 0] ------- [1:2 0:2 32 0] [2] 0 0
r 1.160000000 _1_ RTR  --- 16 cbr 1000 [0 0 0 0] ------- [1:2 0:2 32 0] [2] 0 0
s 1.160000000 _0_ AGT  --- 17 cbr 1000 [0 0 0 0] ------- [0:3 1:3 32 0] [2] 0 0
r 1.160000000 _0_ RTR  --- 17 cbr 1000 [0 0 0 0] ------- [0:3 1:3 32 0] [2] 0 0
s 1.160000000 _0_ RTR  --- 12 cbr 1020 [0 0 0 0] ------- [0:0 2:0 30 1] [2] 0 0
s 1.160000000 _2_ RTR  --- 14 cbr 1020 [0 0 0 0] ------- [2:2 1:0 30 1] [2] 0 0
s 1.160000000 _1_ RTR  --- 15 cbr 1020 [0 0 0 0] ------- [1:1 2:3 30 2] [2] 0 0
s 1.160000000 _1_ RTR  --- 16 cbr 1020 [0 0 0 0] ------- [1:2 0:2 30 0] [2] 0 0
s 1.160000000 _0_ RTR  --- 17 cbr 1020 [0 0 0 0] ------- [0:3 1:3 30 1] [2] 0 0
r 1.169561581 _1_ AGT  --- 14 cbr 1020 [13a 1 2 800] ------- [2:2 1:0 30 1] [2] 1 0
r 1.179287162 _2_ AGT  --- 15 cbr 1020 [13a 2 1 800] ------- [1:1 2:3 30 2] [2] 1 0
r 1.189253270 _0_ AGT  --- 16 cbr 1020 [13a 0 1 800] ------- [1:2 0:2 30 0] [2] 1 0
r 1.199078852 _1_ RTR  --- 12 cbr 1020 [13a 1 0 800] ------- [0:0 2:0 30 1] [2] 1 0
f 1.199078852 _1_ RTR  --- 12 cbr 1020 [13a 1 0 800] ------- [0:0 2:0 29 2] [2] 1 0
r 1.208984433 _2_ AGT  --- 12 cbr 1020 [13a 2 1 800] ------- [0:0 2:0 29 2] [2] 2 0
r 1.219095014 _1_ AGT  --- 17 cbr 1020 [13a 1 0 800] ------- [0:3 1:3 30 1] [2] 1 0
s 1.240000000 _0_ AGT  --- 18 cbr 1000 [0 0 0 0] ------- [0:0 2:0 32 0] [3] 0 0
r 1.240000000 _0_ RTR  --- 18 cbr 1000 [0 0 0 0] ------- [0:0 2:0 32 0] [3] 0 0
s 1.240000000 _2_ AGT  --- 19 cbr 1000 [0 0 0 0] ------- [2:1 0:1 32 0] [3] 0 0
r 1.240000000 _2_ RTR  --- 19 cbr 1000 [0 0 0 0] ------- [2:1 0:1 32 0] [3] 0 0
s 1.240000000 _2_ AGT  --- 20 cbr 1000 [0 0 0 0] ------- [2:2 1:0 32 0] [3] 0 0
r 1.240000000 _2_ RTR  --- 20 cbr 1000 [0 0 0 0] ------- [2:2 1:0 32 0] [3] 0 0
s 1.240000000 _1_ AGT  --- 21 cbr 1000 [0 0 0 0] ------- [1:1 2:3 32 0] [3] 0 0
r 1.240000000 _1_ RTR  --- 21 cbr 1000 [0 0 0 0] ------- [1:1 2:3 32 0] [3] 0 0
s 1.240000000 _1_ AGT  --- 22 cbr 1000 [0 0 0 0] ------- [1:2 0:2 32 0] [3] 0 0
r 1.240000000 _1_ RTR  --- 22 cbr 1000 [0 0 0 0] ------- [1:2 0:2 32 0] [3] 0 0
s 1.240000000 _0_ AGT  --- 23 cbr 1000 [0 0 0 0] ------- [0:3 1:3 32 0] [3] 0 0
r 1.240000000 _0_ RTR  --- 23 cbr 1000 [0 0 0 0] ------- [0:3 1:3 32 0] [3] 0 0
s 1.240000000 _0_ RTR  --- 18 cbr 1020 [0 0 0 0] ------- [0:0 2:0 30 1] [3] 0 0
s 1.240000000 _2_ RTR  --- 20 cbr 1020 [0 0 0 0] ------- [2:2 1:0 30 1] [3] 0 0
s 1.240000000 _1_ RTR  --- 21 cbr 1020 [0 0 0 0] ------- [1:1 2:3 30 2] [3] 0 0
s 1.240000000 _1_ RTR  --- 22 cbr 1020 [0 0 0 0] ------- [1:2 0:2 30 0] [3] 0 0
s 1.240000000 _0_ RTR  --- 23 cbr 1020 [0 0 0 0] ------- [0:3 1:3 30 1] [3] 0 0
r 1.249521581 _2_ AGT  --- 21 cbr 1020 [13a 2 1 800] ------- [1:1 2:3 30 2] [3] 1 0
r 1.259307162 _1_ AGT  --- 20 cbr 1020 [13a 1 2 800] ------- [2:2 1:0 30 1] [3] 1 0
r 1.269172743 _0_ AGT  --- 22 cbr 1020 [13a 0 1 800] ------- [1:2 0:2 30 0] [3] 1 0
r 1.279058325 _1_ RTR  --- 18 cbr 1020 [13a 1 0 800] ------- [0:0 2:0 30 1] [3] 1 0
f 1.279058325 _1_ RTR  --- 18 cbr 1020 [13a 1 0 800] ------- [0:0 2:0 29 2] [3] 1 0
r 1.288844433 _1_ AGT  --- 23 cbr 1020 [13a 1 0 800] ------- [0:3 1:3 30 1] [3] 1 0
r 1.298650014 _2_ AGT  --- 18 cbr 1020 [13a 2 1 800] ------- [0:0 2:0 29 2] [3] 2 0
s 1.320000000 _0_ AGT  --- 24 cbr 1000 [0 0 0 0] ------- [0:0 2:0 32 0] [4] 0 0
r 1.320000000 _0_ RTR  --- 24 cbr 1000 [0 0 0 0] ------- [0:0 2:0 32 0] [4] 0 0
s 1.320000000 _2_ AGT  --- 25 cbr 1000 [0 0 0 0] ------- [2:1 0:1 32 0] [4] 0 0
r 1.320000000 _2_ RTR  --- 25 cbr 1000 [0 0 0 0] ------- [2:1 0:1 32 0] [4] 0 0
s 1.320000000 _2_ AGT  --- 26 cbr 1000 [0 0 0 0] ------- [2:2 1:0 32 0] [4] 0 0
r 1.320000000 _2_ RTR  --- 26 cbr 1000 [0 0 0 0] ------- [2:2 1:0 32 0] [4] 0 0
s 1.320000000 _1_ AGT  --- 27 cbr 1000 [0 0 0 0] ------- [1:1 2:3 32 0] [4] 0 0
r 1.320000000 _1_ RTR  --- 27 cbr 1000 [0 0 0 0] ------- [1:1 2:3 32 0] [4] 0 0
s 1.320000000 _1_ AGT  --- 28 cbr 1000 [0 0 0 0] ------- [1:2 0:2 32 0] [4] 0 0
r 1.320000000 _1_ RTR  --- 28 cbr 1000 [0 0 0 0] ------- [1:2 0:2 32 0] [4] 0 0
s 1.320000000 _0_ AGT  --- 29 cbr 1000 [0 0 0 0] ------- [0:3 1:3 32 0] [4] 0 0
r 1.320000000 _0_ RTR  --- 29 cbr 1000 [0 0 0 0] ------- [0:3 1:3 32 0] [4] 0 0
s 1.320000000 _0_ RTR  --- 24 cbr 1020 [0 0 0 0] ------- [0:0 2:0 30 1] [4] 0 0
s 1.320000000 _2_ RTR  --- 26 cbr 1020 [0 0 0 0] ------- [2:2 1:0 30 1] [4] 0 0
s 1.320000000 _1_ RTR  --- 27 cbr 1020 [0 0 0 0] ------- [1:1 2:3 30 2] [4] 0 0
s 1.320000000 _1_ RTR  --- 28 cbr 1020 [0 0 0 0] ------- [1:2 0:2 30 0] [4] 0 0
s 1.320000000 _0_ RTR  --- 29 cbr 1020 [0 0 0 0] ------- [0:3 1:3 30 1] [4] 0 0
r 1.329481581 _1_ RTR  --- 24 cbr 1020 [13a 1 0 800] ------- [0:0 2:0 30 1] [4] 1 0
f 1.329481581 _1_ RTR  --- 24 cbr 1020 [13a 1 0 800] ------- [0:0 2:0 29 2] [4] 1 0
r 1.339207689 _1_ AGT  --- 29 cbr 1020 [13a 1 0 800] ------- [0:3 1:3 30 1] [4] 1 0
r 1.348933270 _2_ AGT  --- 27 cbr 1020 [13a 2 1 800] ------- [1:1 2:3 30 2] [4] 1 0
r 1.358778852 _1_ AGT  --- 26 cbr 1020 [13a 1 2 800] ------- [2:2 1:0 30 1] [4] 1 0
r 1.368884433 _0_ AGT  --- 28 cbr 1020 [13a 0 1 800] ------- [1:2 0:2 30 0] [4] 1 0
r 1.378610541 _2_ AGT  --- 24 cbr 1020 [13a 2 1 800] ------- [0:0 2:0 29 2] [4] 2 0
s 1.400000000 _0_ AGT  --- 30 cbr 1000 [0 0 0 0] ------- [0:0 2:0 32 0] [5] 0 0
r 1.400000000 _0_ RTR  --- 30 cbr 1000 [0 0 0 0] ------- [0:0 2:0 32 0] [5] 0 0
s 1.400000000 _2_ AGT  --- 31 cbr 1000 [0 0 0 0] ------- [2:1 0:1 32 0] [5] 0 0
r 1.400000000 _2_ RTR  --- 31 cbr 1000 [0 0 0 0] ------- [2:1 0:1 32 0] [5] 0 0
s 1.400000000 _2_ AGT  --- 32 cbr 1000 [0 0 0 0] ------- [2:2 1:0 32 0] [5] 0 0
r 1.400000000 _2_ RTR  --- 32 cbr 1000 [0 0 0 0] ------- [2:2 1:0 32 0] [5] 0 0
s 1.400000000 _1_ AGT  --- 33 cbr 1000 [0 0 0 0] ------- [1:1 2:3 32 0] [5] 0 0
r 1.400000000 _1_ RTR  --- 33 cbr 1000 [0 0 0 0] ------- [1:1 2:3 32 0] [5] 0 0
s 1.400000000 _1_ AGT  --- 34 cbr 1000 [0 0 0 0] ------- [1:2 0:2 32 0] [5] 0 0
r 1.400000000 _1_ RTR  --- 34 cbr 1000 [0 0 0 0] ------- [1:2 0:2 32 0] [5] 0 0
s 1.400000000 _0_ AGT  --- 35 cbr 1000 [0 0 0 0] ------- [0:3 1:3 32 0] [5] 0 0
r 1.400000000 _0_ RTR  --- 35 cbr 1000 [0 0 0 0] ------- [0:3 1:3 32 0] [5] 0 0
s 1.400000000 _0_ RTR  --- 30 cbr 1020 [0 0 0 0] ------- [0:0 2:0 30 1] [5] 0 0
s 1.400000000 _2_ RTR  --- 32 cbr 1020 [0 0 0 0] ------- [2:2 1:0 30 1] [5] 0 0
s 1.400000000 _1_ RTR  --- 33 cbr 1020 [0 0 0 0] ------- [1:1 2:3 30 2] [5] 0 0
s 1.400000000 _1_ RTR  --- 34 cbr 1020 [0 0 0 0] ------- [1:2 0:2 30 0] [5] 0 0
s 1.400000000 _0_ RTR  --- 35 cbr 1020 [0 0 0 0] ------- [0:3 1:3 30 1] [5] 0 0
r 1.409521581 _1_ RTR  --- 30 cbr 1020 [13a 1 0 800] ------- [0:0 2:0 30 1] [5] 1 0
f 1.409521581 _1_ RTR  --- 30 cbr 1020 [13a 1 0 800] ------- [0:0 2:0 29 2] [5] 1 0
r 1.419507162 _2_ AGT  --- 33 cbr 1020 [13a 2 1 800] ------- [1:1 2:3 30 2] [5] 1 0
r 1.429392743 _1_ AGT  --- 32 cbr 1020 [13a 1 2 800] ------- [2:2 1:0 30 1] [5] 1 0
r 1.439158325 _0_ AGT  --- 34 cbr 1020 [13a 0 1 800] ------- [1:2 0:2 30 0] [5] 1 0
r 1.449023906 _1_ AGT  --- 35 cbr 1020 [13a 1 0 800] ------- [0:3 1:3 30 1] [5] 1 0
r 1.458809487 _2_ AGT  --- 30 cbr 1020 [13a 2 1 800] ------- [0:0 2:0 29 2] [5] 2 0
s 1.480000000 _0_ AGT  --- 36 cbr 1000 [0 0 0 0] ------- [0:0 2:0 32 0] [6] 0 0
r 1.480000000 _0_ RTR  --- 36 cbr 1000 [0 0 0 0] ------- [0:0 2:0 32 0] [6] 0 0
s 1.480000000 _2_ AGT  --- 37 cbr 1000 [0 0 0 0] ------- [2:1 0:1 32 0] [6] 0 0
r 1.480000000 _2_ RTR  --- 37 cbr 1000 [0 0 0 0] ------- [2:1 0:1 32 0] [6] 0 0
s 1.480000000 _2_ AGT  --- 38 cbr 1000 [0 0 0 0] ------- [2:2 1:0 32 0] [6] 0 0
r 1.480000000 _2_ RTR  --- 38 cbr 1000 [0 0 0 0] ------- [2:2 1:0 32 0] [6] 0 0
s 1.480000000 _1_ AGT  --- 39 cbr 1000 [0 0 0 0] ------- [1:1 2:3 32 0] [6] 0 0
r 1.480000000 _1_ RTR  --- 39 cbr 1000 [0 0 0 0] ------- [1:1 2:3 32 0] [6] 0 0
s 1.480000000 _1_ AGT  --- 40 cbr 1000 [0 0 0 0] ------- [1:2 0:2 32 0] [6] 0 0
r 1.480000000 _1_ RTR  --- 40 cbr 1000 [0 0 0 0] ------- [1:2 0:2 32 0] [6] 0 0
s 1.480000000 _0_ AGT  --- 41 cbr 1000 [0 0 0 0] ------- [0:3 1:3 32 0] [6] 0 0
r 1.480000000 _0_ RTR  --- 41 cbr 1000 [0 0 0 0] ------- [0:3 1:3 32 0] [6] 0 0
s 1.480000000 _0_ RTR  --- 36 cbr 1020 [0 0 0 0] ------- [0:0 2:0 30 1] [6] 0 0
s 1.480000000 _2_ RTR  --- 38 cbr 1020 [0 0 0 0] ------- [2:2 1:0 30 1] [6] 0 0
s 1.480000000 _1_ RTR  --- 39 cbr 1020 [0 0 0 0] ------- [1:1 2:3 30 2] [6] 0 0
s 1.480000000 _1_ RTR  --- 40 cbr 1020 [0 0 0 0] ------- [1:2 0:2 30 0] [6] 0 0
s 1.480000000 _0_ RTR  --- 41 cbr 1020 [0 0 0 0] ------- [0:3 1:3 30 1] [6] 0 0
r 1.489581581 _2_ AGT  --- 39 cbr 1020 [13a 2 1 800] ------- [1:1 2:3 30 2] [6] 1 0
r 1.499287162 _1_ AGT  --- 38 cbr 1020 [13a 1 2 800] ------- [2:2 1:0 30 1] [6] 1 0
r 1.509092743 _0_ AGT  --- 40 cbr 1020 [13a 0 1 800] ------- [1:2 0:2 30 0] [6] 1 0
r 1.519078325 _1_ RTR  --- 36 cbr 1020 [13a 1 0 800] ------- [0:0 2:0 30 1] [6] 1 0
f 1.519078325 _1_ RTR  --- 36 cbr 1020 [13a 1 0 800] ------- [0:0 2:0 29 2] [6] 1 0
r 1.528843906 _2_ AGT  --- 36 cbr 1020 [13a 2 1 800] ------- [0:0 2:0 29 2] [6] 2 0
r 1.538914487 _1_ AGT  --- 41 cbr 1020 [13a 1 0 800] ------- [0:3 1:3 30 1] [6] 1 0
s 1.560000000 _0_ AGT  --- 42 cbr 1000 [0 0 0 0] ------- [0:0 2:0 32 0] [7] 0 0
r 1.560000000 _0_ RTR  --- 42 cbr 1000 [0 0 0 0] ------- [0:0 2:0 32 0] [7] 0 0
s 1.560000000 _2_ AGT  --- 43 cbr 1000 [0 0 0 0] ------- [2:1 0:1 32 0] [7] 0 0
r 1.560000000 _2_ RTR  --- 43 cbr 1000 [0 0 0 0] ------- [2:1 0:1 32 0] [7] 0 0
s 1.560000000 _2_ AGT  --- 44 cbr 1000 [0 0 0 0] ------- [2:2 1:0 32 0] [7] 0 0
r 1.560000000 _2_ RTR  --- 44 cbr 1000 [0 0 0 0] ------- [2:2 1:0 32 0] [7] 0 0
s 1.560000000 _1_ AGT  --- 45 cbr 1000 [0 0 0 0] ------- [1:1 2:3 32 0] [7] 0 0
r 1.560000000 _1_ RTR  --- 45 cbr 1000 [0 0 0 0] ------- [1:1 2:3 32 0] [7] 0 0
s 1.560000000 _1_ AGT  --- 46 cbr 1000 [0 0 0 0] ------- [1:2 0:2 32 0] [7] 0 0
r 1.560000000 _1_ RTR  --- 46 cbr 1000 [0 0 0 0] ------- [1:2 0:2 32 0] [7] 0 0
s 1.560000000 _0_ AGT  --- 47 cbr 1000 [0 0 0 0] ------- [0:3 1:3 32 0] [7] 0 0
r 1.560000000 _0_ RTR  --- 47 cbr 1000 [0 0 0 0] ------- [0:3 1:3 32 0] [7] 0 0
s 1.560000000 _0_ RTR  --- 42 cbr 1020 [0 0 0 0] ------- [0:0 2:0 30 1] [7] 0 0
s 1.560000000 _2_ RTR  --- 44 cbr 1020 [0 0 0 0] ------- [2:2 1:0 30 1] [7] 0 0
s 1.560000000 _1_ RTR  --- 45 cbr 1020 [0 0 0 0] ------- [1:1 2:3 30 2] [7] 0 0
s 1.560000000 _1_ RTR  --- 46 cbr 1020 [0 0 0 0] ------- [1:2 0:2 30 0] [7] 0 0
s 1.560000000 _0_ RTR  --- 47 cbr 1020 [0 0 0 0] ------- [0:3 1:3 30 1] [7] 0 0
r 1.569401581 _1_ RTR  --- 42 cbr 1020 [13a 1 0 800] ------- [0:0 2:0 30 1] [7] 1 0
f 1.569401581 _1_ RTR  --- 42 cbr 1020 [13a 1 0 800] ------- [0:0 2:0 29 2] [7] 1 0
r 1.579257635 _1_ AGT  --- 44 cbr 1020 [13a 1 2 800] ------- [2:2 1:0 30 1] [7] 1 0
r 1.589103216 _2_ AGT  --- 45 cbr 1020 [13a 2 1 800] ------- [1:1 2:3 30 2] [7] 1 0
r 1.599153798 _1_ AGT  --- 47 cbr 1020 [13a 1 0 800] ------- [0:3 1:3 30 1] [7] 1 0
r 1.608939379 _0_ AGT  --- 46 cbr 1020 [13a 0 1 800] ------- [1:2 0:2 30 0] [7] 1 0
r 1.618765487 _2_ AGT  --- 42 cbr 1020 [13a 2 1 800] ------- [0:0 2:0 29 2] [7] 2 0
s 1.640000000 _0_ AGT  --- 48 cbr 1000 [0 0 0 0] ------- [0:0 2:0 32 0] [8] 0 0
r 1.640000000 _0_ RTR  --- 48 cbr 1000 [0 0 0 0] ------- [0:0 2:0 32 0] [8] 0 0
s 1.640000000 _2_ AGT  --- 49 cbr 1000 [0 0 0 0] ------- [2:1 0:1 32 0] [8] 0 0
r 1.640000000 _2_ RTR  --- 49 cbr 1000 [0 0 0 0] ------- [2:1 0:1 32 0] [8] 0 0
s 1.640000000 _2_ AGT  --- 50 cbr 1000 [0 0 0 0] ------- [2:2 1:0 32 0] [8] 0 0
r 1.640000000 _2_ RTR  --- 50 cbr 1000 [0 0 0 0] ------- [2:2 1:0 32 0] [8] 0 0
s 1.640000000 _1_ AGT  --- 51 cbr 1000 [0 0 0 0] ------- [1:1 2:3 32 0] [8] 0 0
r 1.640000000 _1_ RTR  --- 51 cbr 1000 [0 0 0 0] ------- [1:1 2:3 32 0] [8] 0 0
s 1.640000000 _1_ AGT  --- 52 cbr 1000 [0 0 0 0] ------- [1:2 0:2 32 0] [8] 0 0
r 1.640000000 _1_ RTR  --- 52 cbr 1000 [0 0 0 0] ------- [1:2 0:2 32 0] [8] 0 0
s 1.640000000 _0_ AGT  --- 53 cbr 1000 [0 0 0 0] ------- [0:3 1:3 32 0] [8] 0 0
r 1.640000000 _0_ RTR  --- 53 cbr 1000 [0 0 0 0] ------- [0:3 1:3 32 0] [8] 0 0
s 1.640000000 _0_ RTR  --- 48 cbr 1020 [0 0 0 0] ------- [0:0 2:0 30 1] [8] 0 0
s 1.640000000 _2_ RTR  --- 50 cbr 1020 [0 0 0 0] ------- [2:2 1:0 30 1] [8] 0 0
s 1.640000000 _1_ RTR  --- 51 cbr 1020 [0 0 0 0] ------- [1:1 2:3 30 2] [8] 0 0
s 1.640000000 _1_ RTR  --- 52 cbr 1020 [0 0 0 0] ------- [1:2 0:2 30 0] [8] 0 0
s 1.640000000 _0_ RTR  --- 53 cbr 1020 [0 0 0 0] ------- [0:3 1:3 30 1] [8] 0 0
r 1.649401581 _2_ AGT  --- 51 cbr 1020 [13a 2 1 800] ------- [1:1 2:3 30 2] [8] 1 0
r 1.659127689 _0_ AGT  --- 52 cbr 1020 [13a 0 1 800] ------- [1:2 0:2 30 0] [8] 1 0
r 1.669053270 _1_ RTR  --- 48 cbr 1020 [13a 1 0 800] ------- [0:0 2:0 30 1] [8] 1 0
f 1.669053270 _1_ RTR  --- 48 cbr 1020 [13a 1 0 800] ------- [0:0 2:0 29 2] [8] 1 0
r 1.678809325 _1_ AGT  --- 50 cbr 1020 [13a 1 2 800] ------- [2:2 1:0 30 1] [8] 1 0
r 1.688674906 _2_ AGT  --- 48 cbr 1020 [13a 2 1 800] ------- [0:0 2:0 29 2] [8] 2 0
r 1.699085487 _1_ AGT  --- 53 cbr 1020 [13a 1 0 800] ------- [0:3 1:3 30 1] [8] 1 0
s 1.720000000 _0_ AGT  --- 54 cbr 1000 [0 0 0 0] ------- [0:0 2:0 32 0] [9] 0 0
r 1.720000000 _0_ RTR  --- 54 cbr 1000 [0 0 0 0] ------- [0:0 2:0 32 0] [9] 0 0
s 1.720000000 _2_ AGT  --- 55 cbr 1000 [0 0 0 0] ------- [2:1 0:1 32 0] [9] 0 0
r 1.720000000 _2_ RTR  --- 55 cbr 1000 [0 0 0 0] ------- [2:1 0:1 32 0] [9] 0 0
s 1.720000000 _2_ AGT  --- 56 cbr 1000 [0 0 0 0] ------- [2:2 1:0 32 0] [9] 0 0
r 1.720000000 _2_ RTR  --- 56 cbr 1000 [0 0 0 0] ------- [2:2 1:0 32 0] [9] 0 0
s 1.720000000 _1_ AGT  --- 57 cbr 1000 [0 0 0 0] ------- [1:1 2:3 32 0] [9] 0 0
r 1.720000000 _1_ RTR  --- 57 cbr 1000 [0 0 0 0] ------- [1:1 2:3 32 0] [9] 0 0
s 1.720000000 _1_ AGT  --- 58 cbr 1000 [0 0 0 0] ------- [1:2 0:2 32 0] [9] 0 0
r 1.720000000 _1_ RTR  --- 58 cbr 1000 [0 0 0 0] ------- [1:2 0:2 32 0] [9] 0 0
s 1.720000000 _0_ AGT  --- 59 cbr 1000 [0 0 0 0] ------- [0:3 1:3 32 0] [9] 0 0
r 1.720000000 _0_ RTR  --- 59 cbr 1000 [0 0 0 0] ------- [0:3 1:3 32 0] [9] 0 0
s 1.720000000 _0_ RTR  --- 54 cbr 1020 [0 0 0 0] ------- [0:0 2:0 30 1] [9] 0 0
s 1.720000000 _2_ RTR  --- 56 cbr 1020 [0 0 0 0] ------- [2:2 1:0 30 1] [9] 0 0
s 1.720000000 _1_ RTR  --- 57 cbr 1020 [0 0 0 0] ------- [1:1 2:3 30 2] [9] 0 0
s 1.720000000 _1_ RTR  --- 58 cbr 1020 [0 0 0 0] ------- [1:2 0:2 30 0] [9] 0 0
s 1.720000000 _0_ RTR  --- 59 cbr 1020 [0 0 0 0] ------- [0:3 1:3 30 1] [9] 0 0
r 1.729421581 _2_ AGT  --- 57 cbr 1020 [13a 2 1 800] ------- [1:1 2:3 30 2] [9] 1 0
r 1.739107689 _0_ AGT  --- 58 cbr 1020 [13a 0 1 800] ------- [1:2 0:2 30 0] [9] 1 0
r 1.748813270 _1_ RTR  --- 54 cbr 1020 [13a 1 0 800] ------- [0:0 2:0 30 1] [9] 1 0
f 1.748813270 _1_ RTR  --- 54 cbr 1020 [13a 1 0 800] ------- [0:0 2:0 29 2] [9] 1 0
r 1.758749325 _1_ AGT  --- 56 cbr 1020 [13a 1 2 800] ------- [2:2 1:0 30 1] [9] 1 0
r 1.768514906 _2_ AGT  --- 54 cbr 1020 [13a 2 1 800] ------- [0:0 2:0 29 2] [9] 2 0
r 1.778685487 _1_ AGT  --- 59 cbr 1020 [13a 1 0 800] ------- [0:3 1:3 30 1] [9] 1 0
s 1.800000000 _0_ AGT  --- 60 cbr 1000 [0 0 0 0] ------- [0:0 2:0 32 0] [10] 0 0
r 1.800000000 _0_ RTR  --- 60 cbr 1000 [0 0 0 0] ------- [0:0 2:0 32 0] [10] 0 0
s 1.800000000 _2_ AGT  --- 61 cbr 1000 [0 0 0 0] ------- [2:1 0:1 32 0] [10] 0 0
r 1.800000000 _2_ RTR  --- 61 cbr 1000 [0 0 0 0] ------- [2:1 0:1 32 0] [10] 0 0
s 1.800000000 _2_ AGT  --- 62 cbr 1000 [0 0 0 0] ------- [2:2 1:0 32 0] [10] 0 0
r 1.800000000 _2_ RTR  --- 62 cbr 1000 [0 0 0 0] ------- [2:2 1:0 32 0] [10] 0 0
s 1.800000000 _1_ AGT  --- 63 cbr 1000 [0 0 0 0] ------- [1:1 2:3 32 0] [10] 0 0
r 1.800000000 _1_ RTR  --- 63 cbr 1000 [0 0 0 0] ------- [1:1 2:3 32 0] [10] 0 0
s 1.800000000 _1_ AGT  --- 64 cbr 1000 [0 0 0 0] ------- [1:2 0:2 32 0] [10] 0 0
r 1.800000000 _1_ RTR  --- 64 cbr 1000 [0 0 0 0] ------- [1:2 0:2 32 0] [10] 0 0
s 1.800000000 _0_ AGT  --- 65 cbr 1000 [0 0 0 0] ------- [0:3 1:3 32 0] [10] 0 0
r 1.800000000 _0_ RTR  --- 65 cbr 1000 [0 0 0 0] ------- [0:3 1:3 32 0] [10] 0 0
s 1.800000000 _0_ RTR  --- 60 cbr 1020 [0 0 0 0] ------- [0:0 2:0 30 1] [10] 0 0
s 1.800000000 _2_ RTR  --- 62 cbr 1020 [0 0 0 0] ------- [2:2 1:0 30 1] [10] 0 0
s 1.800000000 _1_ RTR  --- 63 cbr 1020 [0 0 0 0] ------- [1:1 2:3 30 2] [10] 0 0
s 1.800000000 _1_ RTR  --- 64 cbr 1020 [0 0 0 0] ------- [1:2 0:2 30 0] [10] 0 0
s 1.800000000 _0_ RTR  --- 65 cbr 1020 [0 0 0 0] ------- [0:3 1:3 30 1] [10] 0 0
r 1.810548108 _2_ AGT  --- 63 cbr 1020 [13a 2 1 800] ------- [1:1 2:3 30 2] [10] 1 0
r 1.820214216 _0_ AGT  --- 64 cbr 1020 [13a 0 1 800] ------- [1:2 0:2 30 0] [10] 1 0
r 1.830404798 _1_ AGT  --- 62 cbr 1020 [13a 1 2 800] ------- [2:2 1:0 30 1] [10] 1 0
r 1.840520852 _1_ RTR  --- 60 cbr 1020 [13a 1 0 800] ------- [0:0 2:0 30 1] [10] 1 0
f 1.840520852 _1_ RTR  --- 60 cbr 1020 [13a 1 0 800] ------- [0:0 2:0 29 2] [10] 1 0
r 1.850726433 _2_ AGT  --- 60 cbr 1020 [13a 2 1 800] ------- [0:0 2:0 29 2] [10] 2 0
r 1.860797014 _1_ AGT  --- 65 cbr 1020 [13a 1 0 800] ------- [0:3 1:3 30 1] [10] 1 0
s 1.880000000 _0_ AGT  --- 66 cbr 1000 [0 0 0 0] ------- [0:0 2:0 32 0] [11] 0 0
r 1.880000000 _0_ RTR  --- 66 cbr 1000 [0 0 0 0] ------- [0:0 2:0 32 0] [11] 0 0
s 1.880000000 _2_ AGT  --- 67 cbr 1000 [0 0 0 0] ------- [2:1 0:1 32 0] [11] 0 0
r 1.880000000 _2_ RTR  --- 67 cbr 1000 [0 0 0 0] ------- [2:1 0:1 32 0] [11] 0 0
s 1.880000000 _2_ AGT  --- 68 cbr 1000 [0 0 0 0] ------- [2:2 1:0 32 0] [11] 0 0
r 1.880000000 _2_ RTR  --- 68 cbr 1000 [0 0 0 0] ------- [2:2 1:0 32 0] [11] 0 0
s 1.880000000 _1_ AGT  --- 69 cbr 1000 [0 0 0 0] ------- [1:1 2:3 32 0] [11] 0 0
r 1.880000000 _1_ RTR  --- 69 cbr 1000 [0 0 0 0] ------- [1:1 2:3 32 0] [11] 0 0
s 1.880000000 _1_ AGT  --- 70 cbr 1000 [0 0 0 0] ------- [1:2 0:2 32 0] [11] 0 0
r 1.880000000 _1_ RTR  --- 70 cbr 1000 [0 0 0 0] ------- [1:2 0:2 32 0] [11] 0 0
s 1.880000000 _0_ AGT  --- 71 cbr 1000 [0 0 0 0] ------- [0:3 1:3 32 0] [11] 0 0
r 1.880000000 _0_ RTR  --- 71 cbr 1000 [0 0 0 0] ------- [0:3 1:3 32 0] [11] 0 0
s 1.880000000 _0_ RTR  --- 66 cbr 1020 [0 0 0 0] ------- [0:0 2:0 30 1] [11] 0 0
s 1.880000000 _2_ RTR  --- 68 cbr 1020 [0 0 0 0] ------- [2:2 1:0 30 1] [11] 0 0
s 1.880000000 _1_ RTR  --- 69 cbr 1020 [0 0 0 0] ------- [1:1 2:3 30 2] [11] 0 0
s 1.880000000 _1_ RTR  --- 70 cbr 1020 [0 0 0 0] ------- [1:2 0:2 30 0] [11] 0 0
s 1.880000000 _0_ RTR  --- 71 cbr 1020 [0 0 0 0] ------- [0:3 1:3 30 1] [11] 0 0
r 1.889541581 _2_ AGT  --- 69 cbr 1020 [13a 2 1 800] ------- [1:1 2:3 30 2] [11] 1 0
r 1.899447689 _0_ AGT  --- 70 cbr 1020 [13a 0 1 800] ------- [1:2 0:2 30 0] [11] 1 0
r 1.909193270 _1_ RTR  --- 66 cbr 1020 [13a 1 0 800] ------- [0:0 2:0 30 1] [11] 1 0
f 1.909193270 _1_ RTR  --- 66 cbr 1020 [13a 1 0 800] ------- [0:0 2:0 29 2] [11] 1 0
r 1.918959379 _1_ AGT  --- 71 cbr 1020 [13a 1 0 800] ------- [0:3 1:3 30 1] [11] 1 0
r 1.928775433 _1_ AGT  --- 68 cbr 1020 [13a 1 2 800] ------- [2:2 1:0 30 1] [11] 1 0
r 1.938661014 _2_ AGT  --- 66 cbr 1020 [13a 2 1 800] ------- [0:0 2:0 29 2] [11] 2 0
s 1.960000000 _0_ AGT  --- 72 cbr 1000 [0 0 0 0] ------- [0:0 2:0 32 0] [12] 0 0
r 1.960000000 _0_ RTR  --- 72 cbr 1000 [0 0 0 0] ------- [0:0 2:0 32 0] [12] 0 0
s 1.960000000 _2_ AGT  --- 73 cbr 1000 [0 0 0 0] ------- [2:1 0:1 32 0] [12] 0 0
r 1.960000000 _2_ RTR  --- 73 cbr 1000 [0 0 0 0] ------- [2:1 0:1 32 0] [12] 0 0
s 1.960000000 _2_ AGT  --- 74 cbr 1000 [0 0 0 0] ------- [2:2 1:0 32 0] [12] 0 0
r 1.960000000 _2_ RTR  --- 74 cbr 1000 [0 0 0 0] ------- [2:2 1:0 32 0] [12] 0 0
s 1.960000000 _1_ AGT  --- 75 cbr 1000 [0 0 0 0] ------- [1:1 2:3 32 0] [12] 0 0
r 1.960000000 _1_ RTR  --- 75 cbr 1000 [0 0 0 0] ------- [1:1 2:3 32 0] [12] 0 0
s 1.960000000 _1_ AGT  --- 76 cbr 1000 [0 0 0 0] ------- [1:2 0:2 32 0] [12] 0 0
r 1.960000000 _1_ RTR  --- 76 cbr 1000 [0 0 0 0] ------- [1:2 0:2 32 0] [12] 0 0
s 1.960000000 _0_ AGT  --- 77 cbr 1000 [0 0 0 0] ------- [0:3 1:3 32 0] [12] 0 0
r 1.960000000 _0_ RTR  --- 77 cbr 1000 [0 0 0 0] ------- [0:3 1:3 32 0] [12] 0 0
s 1.960000000 _0_ RTR  --- 72 cbr 1020 [0 0 0 0] ------- [0:0 2:0 30 1] [12] 0 0
s 1.960000000 _2_ RTR  --- 74 cbr 1020 [0 0 0 0] ------- [2:2 1:0 30 1] [12] 0 0
s 1.960000000 _1_ RTR  --- 75 cbr 1020 [0 0 0 0] ------- [1:1 2:3 30 2] [12] 0 0
s 1.960000000 _1_ RTR  --- 76 cbr 1020 [0 0 0 0] ------- [1:2 0:2 30 0] [12] 0 0
s 1.960000000 _0_ RTR  --- 77 cbr 1020 [0 0 0 0] ------- [0:3 1:3 30 1] [12] 0 0
r 1.969401581 _2_ AGT  --- 75 cbr 1020 [13a 2 1 800] ------- [1:1 2:3 30 2] [12] 1 0
r 1.979187689 _0_ AGT  --- 76 cbr 1020 [13a 0 1 800] ------- [1:2 0:2 30 0] [12] 1 0
r 1.989338270 _1_ AGT  --- 74 cbr 1020 [13a 1 2 800] ------- [2:2 1:0 30 1] [12] 1 0
r 1.999074325 _1_ RTR  --- 72 cbr 1020 [13a 1 0 800] ------- [0:0 2:0 30 1] [12] 1 0
f 1.999074325 _1_ RTR  --- 72 cbr 1020 [13a 1 0 800] ------- [0:0 2:0 29 2] [12] 1 0
r 2.009239906 _2_ AGT  --- 72 cbr 1020 [13a 2 1 800] ------- [0:0 2:0 29 2] [12] 2 0
r 2.019390487 _1_ AGT  --- 77 cbr 1020 [13a 1 0 800] ------- [0:3 1:3 30 1] [12] 1 0
s 2.040000000 _0_ AGT  --- 78 cbr 1000 [0 0 0 0] ------- [0:0 2:0 32 0] [13] 0 0
r 2.040000000 _0_ RTR  --- 78 cbr 1000 [0 0 0 0] ------- [0:0 2:0 32 0] [13] 0 0
s 2.040000000 _2_ AGT  --- 79 cbr 1000 [0 0 0 0] ------- [2:1 0:1 32 0] [13] 0 0
r 2.040000000 _2_ RTR  --- 79 cbr 1000 [0 0 0 0] ------- [2:1 0:1 32 0] [13] 0 0
s 2.040000000 _2_ AGT  --- 80 cbr 1000 [0 0 0 0] ------- [2:2 1:0 32 0] [13] 0 0
r 2.040000000 _2_ RTR  --- 80 cbr 1000 [0 0 0 0] ------- [2:2 1:0 32 0] [13] 0 0
s 2.040000000 _1_ AGT  --- 81 cbr 1000 [0 0 0 0] ------- [1:1 2:3 32 0] [13] 0 0