n -t * -s 0  -x 200 -y 100 -Z 0 -z 20  -v circle -c black
n -t * -s 1  -x 250 -y 250 -Z 0 -z 20  -v circle -c black
n -t * -s 2  -x 200 -y 400 -Z 0 -z 20  -v circle -c black
V -t * -v 1.0a5 -a 0
W -t * -x 100 -y 100
A -t * -n 1 -p 0 -o 0x7fffffff -c 30 -a 1
A -t * -h 1 -m 1073741823 -s 0
n -t 0 -s 1 -S COLOR -c red -o red -i red -I red
n -t 0 -s 1 -S DLABEL -l "Attacker" -L ""
n -t 0 -s 0 -S COLOR -c green -o green -i green -I green
n -t 0 -s 0 -S DLABEL -l "Source" -L ""
n -t 0 -s 2 -S COLOR -c blue -o blue -i blue -I blue
n -t 0 -s 2 -S DLABEL -l "Destination" -L ""
+ -t 1.000000000 -s 0 -d -1 -p cbr -e 1000 -c 2 -a 0 -i 0 -k AGT 
- -t 1.000000000 -s 0 -d -1 -p cbr -e 1000 -c 2 -a 0 -i 0 -k AGT
h -t 1.000000000 -s 0 -d -1 -p cbr -e 1000 -c 2 -a 0 -i 0 -k AGT
+ -t 1.000000000 -s 2 -d -1 -p cbr -e 1000 -c 2 -a 0 -i 1 -k AGT 
- -t 1.000000000 -s 2 -d -1 -p cbr -e 1000 -c 2 -a 0 -i 1 -k AGT
h -t 1.000000000 -s 2 -d -1 -p cbr -e 1000 -c 2 -a 0 -i 1 -k AGT
+ -t 1.000000000 -s 2 -d -1 -p cbr -e 1000 -c 2 -a 0 -i 2 -k AGT 
- -t 1.000000000 -s 2 -d -1 -p cbr -e 1000 -c 2 -a 0 -i 2 -k AGT
h -t 1.000000000 -s 2 -d -1 -p cbr -e 1000 -c 2 -a 0 -i 2 -k AGT
+ -t 1.000000000 -s 1 -d -1 -p cbr -e 1000 -c 2 -a 0 -i 3 -k AGT 
- -t 1.000000000 -s 1 -d -1 -p cbr -e 1000 -c 2 -a 0 -i 3 -k AGT
h -t 1.000000000 -s 1 -d -1 -p cbr -e 1000 -c 2 -a 0 -i 3 -k AGT
+ -t 1.000000000 -s 1 -d -1 -p cbr -e 1000 -c 2 -a 0 -i 4 -k AGT 
- -t 1.000000000 -s 1 -d -1 -p cbr -e 1000 -c 2 -a 0 -i 4 -k AGT
h -t 1.000000000 -s 1 -d -1 -p cbr -e 1000 -c 2 -a 0 -i 4 -k AGT
+ -t 1.000000000 -s 0 -d -1 -p cbr -e 1000 -c 2 -a 0 -i 5 -k AGT 
- -t 1.000000000 -s 0 -d -1 -p cbr -e 1000 -c 2 -a 0 -i 5 -k AGT
h -t 1.000000000 -s 0 -d -1 -p cbr -e 1000 -c 2 -a 0 -i 5 -k AGT
+ -t 1.000000000 -s 0 -d -1 -p AODV -e 48 -c 2 -a 0 -i 0 -k RTR 
- -t 1.000000000 -s 0 -d -1 -p AODV -e 48 -c 2 -a 0 -i 0 -k RTR
h -t 1.000000000 -s 0 -d -1 -p AODV -e 48 -c 2 -a 0 -i 0 -k RTR
+ -t 1.000000000 -s 2 -d -1 -p AODV -e 48 -c 2 -a 0 -i 0 -k RTR 
- -t 1.000000000 -s 2 -d -1 -p AODV -e 48 -c 2 -a 0 -i 0 -k RTR
h -t 1.000000000 -s 2 -d -1 -p AODV -e 48 -c 2 -a 0 -i 0 -k RTR
+ -t 1.000000000 -s 2 -d -1 -p AODV -e 48 -c 2 -a 0 -i 0 -k RTR 
- -t 1.000000000 -s 2 -d -1 -p AODV -e 48 -c 2 -a 0 -i 0 -k RTR
h -t 1.000000000 -s 2 -d -1 -p AODV -e 48 -c 2 -a 0 -i 0 -k RTR
+ -t 1.000000000 -s 1 -d -1 -p AODV -e 48 -c 2 -a 0 -i 0 -k RTR 
- -t 1.000000000 -s 1 -d -1 -p AODV -e 48 -c 2 -a 0 -i 0 -k RTR
h -t 1.000000000 -s 1 -d -1 -p AODV -e 48 -c 2 -a 0 -i 0 -k RTR
+ -t 1.000000000 -s 1 -d -1 -p AODV -e 48 -c 2 -a 0 -i 0 -k RTR 
- -t 1.000000000 -s 1 -d -1 -p AODV -e 48 -c 2 -a 0 -i 0 -k RTR
h -t 1.000000000 -s 1 -d -1 -p AODV -e 48 -c 2 -a 0 -i 0 -k RTR
+ -t 1.000000000 -s 0 -d -1 -p AODV -e 48 -c 2 -a 0 -i 0 -k RTR 
- -t 1.000000000 -s 0 -d -1 -p AODV -e 48 -c 2 -a 0 -i 0 -k RTR
h -t 1.000000000 -s 0 -d -1 -p AODV -e 48 -c 2 -a 0 -i 0 -k RTR
r -t 1.000988527 -s 1 -d -1 -p AODV -e 48 -c 2 -a 0 -i 0 -k RTR
+ -t 1.000988527 -s 1 -d 2 -p cbr -e 1020 -c 2 -a 0 -i 3 -k RTR 
- -t 1.000988527 -s 1 -d 2 -p cbr -e 1020 -c 2 -a 0 -i 3 -k RTR
h -t 1.000988527 -s 1 -d 2 -p cbr -e 1020 -c 2 -a 0 -i 3 -k RTR
r -t 1.002186527 -s 1 -d -1 -p AODV -e 48 -c 2 -a 0 -i 0 -k RTR
+ -t 1.002186527 -s 1 -d 2 -p AODV -e 44 -c 2 -a 0 -i 0 -k RTR 
- -t 1.002186527 -s 1 -d 2 -p AODV -e 44 -c 2 -a 0 -i 0 -k RTR
h -t 1.002186527 -s 1 -d 2 -p AODV -e 44 -c 2 -a 0 -i 0 -k RTR
d -t 1.002186527 -s 1 -d 2 -p cbr -e 1020 -c 2 -a 0 -i 3 -k IFQ
r -t 1.003325054 -s 2 -d -1 -p AODV -e 48 -c 2 -a 0 -i 0 -k RTR
r -t 1.003325054 -s 0 -d -1 -p AODV -e 48 -c 2 -a 0 -i 0 -k RTR
+ -t 1.003325054 -s 2 -d 1 -p cbr -e 1020 -c 2 -a 0 -i 2 -k RTR 
- -t 1.003325054 -s 2 -d 1 -p cbr -e 1020 -c 2 -a 0 -i 2 -k RTR
h -t 1.003325054 -s 2 -d 1 -p cbr -e 1020 -c 2 -a 0 -i 2 -k RTR
+ -t 1.003325054 -s 2 -d 1 -p AODV -e 44 -c 2 -a 0 -i 0 -k RTR 
- -t 1.003325054 -s 2 -d 1 -p AODV -e 44 -c 2 -a 0 -i 0 -k RTR
h -t 1.003325054 -s 2 -d 1 -p AODV -e 44 -c 2 -a 0 -i 0 -k RTR
d -t 1.003325054 -s 2 -d 1 -p cbr -e 1020 -c 2 -a 0 -i 2 -k IFQ
+ -t 1.003325054 -s 0 -d 1 -p cbr -e 1020 -c 2 -a 0 -i 5 -k RTR 
- -t 1.003325054 -s 0 -d 1 -p cbr -e 1020 -c 2 -a 0 -i 5 -k RTR
h -t 1.003325054 -s 0 -d 1 -p cbr -e 1020 -c 2 -a 0 -i 5 -k RTR
r -t 1.004383054 -s 2 -d -1 -p AODV -e 48 -c 2 -a 0 -i 0 -k RTR
r -t 1.004383054 -s 0 -d -1 -p AODV -e 48 -c 2 -a 0 -i 0 -k RTR
+ -t 1.004383054 -s 0 -d 1 -p AODV -e 44 -c 2 -a 0 -i 0 -k RTR 
- -t 1.004383054 -s 0 -d 1 -p AODV -e 44 -c 2 -a 0 -i 0 -k RTR
h -t 1.004383054 -s 0 -d 1 -p AODV -e 44 -c 2 -a 0 -i 0 -k RTR
d -t 1.004383054 -s 0 -d 1 -p cbr -e 1020 -c 2 -a 0 -i 5 -k IFQ
+ -t 1.005400261 -s 1 -d -1 -p AODV -e 48 -c 2 -a 0 -i 0 -k RTR 
- -t 1.005400261 -s 1 -d -1 -p AODV -e 48 -c 2 -a 0 -i 0 -k RTR
h -t 1.005400261 -s 1 -d -1 -p AODV -e 48 -c 2 -a 0 -i 0 -k RTR
+ -t 1.007473845 -s 2 -d -1 -p AODV -e 48 -c 2 -a 0 -i 0 -k RTR 
- -t 1.007473845 -s 2 -d -1 -p AODV -e 48 -c 2 -a 0 -i 0 -k RTR
h -t 1.007473845 -s 2 -d -1 -p AODV -e 48 -c 2 -a 0 -i 0 -k RTR
r -t 1.007642635 -s 1 -d -1 -p AODV -e 48 -c 2 -a 0 -i 0 -k RTR
+ -t 1.007642635 -s 1 -d 0 -p cbr -e 1020 -c 2 -a 0 -i 4 -k RTR 
- -t 1.007642635 -s 1 -d 0 -p cbr -e 1020 -c 2 -a 0 -i 4 -k RTR
h -t 1.007642635 -s 1 -d 0 -p cbr -e 1020 -c 2 -a 0 -i 4 -k RTR
+ -t 1.007642635 -s 1 -d 0 -p AODV -e 44 -c 2 -a 0 -i 0 -k RTR 
- -t 1.007642635 -s 1 -d 0 -p AODV -e 44 -c 2 -a 0 -i 0 -k RTR
h -t 1.007642635 -s 1 -d 0 -p AODV -e 44 -c 2 -a 0 -i 0 -k RTR
d -t 1.007642635 -s 1 -d 0 -p cbr -e 1020 -c 2 -a 0 -i 4 -k IFQ
r -t 1.008900635 -s 1 -d -1 -p AODV -e 48 -c 2 -a 0 -i 0 -k RTR
+ -t 1.008900635 -s 1 -d 0 -p AODV -e 44 -c 2 -a 0 -i 0 -k RTR 
- -t 1.008900635 -s 1 -d 0 -p AODV -e 44 -c 2 -a 0 -i 0 -k RTR
h -t 1.008900635 -s 1 -d 0 -p AODV -e 44 -c 2 -a 0 -i 0 -k RTR
d -t 1.008900635 -s 1 -d 0 -p AODV -e 44 -c 2 -a 0 -i 0 -k IFQ
r -t 1.009839162 -s 2 -d -1 -p AODV -e 48 -c 2 -a 0 -i 0 -k RTR
r -t 1.009839162 -s 0 -d -1 -p AODV -e 48 -c 2 -a 0 -i 0 -k RTR
+ -t 1.009839162 -s 0 -d 1 -p cbr -e 1020 -c 2 -a 0 -i 0 -k RTR 
- -t 1.009839162 -s 0 -d 1 -p cbr -e 1020 -c 2 -a 0 -i 0 -k RTR
h -t 1.009839162 -s 0 -d 1 -p cbr -e 1020 -c 2 -a 0 -i 0 -k RTR
d -t 1.009839162 -s 0 -d 1 -p AODV -e 44 -c 2 -a 0 -i 0 -k IFQ
+ -t 1.009839162 -s 0 -d 1 -p AODV -e 44 -c 2 -a 0 -i 0 -k RTR 
- -t 1.009839162 -s 0 -d 1 -p AODV -e 44 -c 2 -a 0 -i 0 -k RTR
h -t 1.009839162 -s 0 -d 1 -p AODV -e 44 -c 2 -a 0 -i 0 -k RTR
d -t 1.009839162 -s 0 -d 1 -p cbr -e 1020 -c 2 -a 0 -i 0 -k RTR
d -t 1.009839162 -s 0 -d 1 -p AODV -e 44 -c 2 -a 0 -i 0 -k IFQ
+ -t 1.009839162 -s 0 -d 0 -p AODV -e 40 -c 2 -a 0 -i 0 -k RTR 
- -t 1.009839162 -s 0 -d 0 -p AODV -e 40 -c 2 -a 0 -i 0 -k RTR
h -t 1.009839162 -s 0 -d 0 -p AODV -e 40 -c 2 -a 0 -i 0 -k RTR
+ -t 1.011489815 -s 0 -d -1 -p AODV -e 48 -c 2 -a 0 -i 0 -k RTR 
- -t 1.011489815 -s 0 -d -1 -p AODV -e 48 -c 2 -a 0 -i 0 -k RTR
h -t 1.011489815 -s 0 -d -1 -p AODV -e 48 -c 2 -a 0 -i 0 -k RTR
r -t 1.015934852 -s 1 -d -1 -p AODV -e 48 -c 2 -a 0 -i 0 -k RTR
r -t 1.020827014 -s 1 -d 0 -p AODV -e 40 -c 2 -a 0 -i 0 -k RTR
+ -t 1.080000000 -s 0 -d -1 -p cbr -e 1000 -c 2 -a 0 -i 6 -k AGT 
- -t 1.080000000 -s 0 -d -1 -p cbr -e 1000 -c 2 -a 0 -i 6 -k AGT
h -t 1.080000000 -s 0 -d -1 -p cbr -e 1000 -c 2 -a 0 -i 6 -k AGT
+ -t 1.080000000 -s 2 -d -1 -p cbr -e 1000 -c 2 -a 0 -i 7 -k AGT 
- -t 1.080000000 -s 2 -d -1 -p cbr -e 1000 -c 2 -a 0 -i 7 -k AGT
h -t 1.080000000 -s 2 -d -1 -p cbr -e 1000 -c 2 -a 0 -i 7 -k AGT
+ -t 1.080000000 -s 2 -d -1 -p cbr -e 1000 -c 2 -a 0 -i 8 -k AGT 
- -t 1.080000000 -s 2 -d -1 -p cbr -e 1000 -c 2 -a 0 -i 8 -k AGT
h -t 1.080000000 -s 2 -d -1 -p cbr -e 1000 -c 2 -a 0 -i 8 -k AGT
+ -t 1.080000000 -s 1 -d -1 -p cbr -e 1000 -c 2 -a 0 -i 9 -k AGT 
- -t 1.080000000 -s 1 -d -1 -p cbr -e 1000 -c 2 -a 0 -i 9 -k AGT
h -t 1.080000000 -s 1 -d -1 -p cbr -e 1000 -c 2 -a 0 -i 9 -k AGT
+ -t 1.080000000 -s 1 -d -1 -p cbr -e 1000 -c 2 -a 0 -i 10 -k AGT 
- -t 1.080000000 -s 1 -d -1 -p cbr -e 1000 -c 2 -a 0 -i 10 -k AGT
h -t 1.080000000 -s 1 -d -1 -p cbr -e 1000 -c 2 -a 0 -i 10 -k AGT
+ -t 1.080000000 -s 0 -d -1 -p cbr -e 1000 -c 2 -a 0 -i 11 -k AGT 
- -t 1.080000000 -s 0 -d -1 -p cbr -e 1000 -c 2 -a 0 -i 11 -k AGT
h -t 1.080000000 -s 0 -d -1 -p cbr -e 1000 -c 2 -a 0 -i 11 -k AGT
+ -t 1.080000000 -s 0 -d -1 -p AODV -e 48 -c 2 -a 0 -i 0 -k RTR 
- -t 1.080000000 -s 0 -d -1 -p AODV -e 48 -c 2 -a 0 -i 0 -k RTR
h -t 1.080000000 -s 0 -d -1 -p AODV -e 48 -c 2 -a 0 -i 0 -k RTR
+ -t 1.080000000 -s 2 -d 1 -p cbr -e 1020 -c 2 -a 0 -i 8 -k RTR 
- -t 1.080000000 -s 2 -d 1 -p cbr -e 1020 -c 2 -a 0 -i 8 -k RTR
h -t 1.080000000 -s 2 -d 1 -p cbr -e 1020 -c 2 -a 0 -i 8 -k RTR
+ -t 1.080000000 -s 1 -d 2 -p cbr -e 1020 -c 2 -a 0 -i 9 -k RTR 
- -t 1.080000000 -s 1 -d 2 -p cbr -e 1020 -c 2 -a 0 -i 9 -k RTR
h -t 1.080000000 -s 1 -d 2 -p cbr -e 1020 -c 2 -a 0 -i 9 -k RTR
+ -t 1.080000000 -s 1 -d 0 -p cbr -e 1020 -c 2 -a 0 -i 10 -k RTR 
- -t 1.080000000 -s 1 -d 0 -p cbr -e 1020 -c 2 -a 0 -i 10 -k RTR
h -t 1.080000000 -s 1 -d 0 -p cbr -e 1020 -c 2 -a 0 -i 10 -k RTR
+ -t 1.080000000 -s 0 -d 1 -p cbr -e 1020 -c 2 -a 0 -i 11 -k RTR 
- -t 1.080000000 -s 0 -d 1 -p cbr -e 1020 -c 2 -a 0 -i 11 -k RTR
h -t 1.080000000 -s 0 -d 1 -p cbr -e 1020 -c 2 -a 0 -i 11 -k RTR
r -t 1.089461581 -s 2 -d 2 -p cbr -e 1020 -c 2 -a 0 -i 9 -k AGT
r -t 1.099247689 -s 0 -d 0 -p cbr -e 1020 -c 2 -a 0 -i 10 -k AGT
r -t 1.100600216 -s 1 -d -1 -p AODV -e 48 -c 2 -a 0 -i 0 -k RTR
+ -t 1.100600216 -s 1 -d 0 -p AODV -e 44 -c 2 -a 0 -i 0 -k RTR 
- -t 1.100600216 -s 1 -d 0 -p AODV -e 44 -c 2 -a 0 -i 0 -k RTR
h -t 1.100600216 -s 1 -d 0 -p AODV -e 44 -c 2 -a 0 -i 0 -k RTR
+ -t 1.102363798 -s 0 -d 1 -p cbr -e 1020 -c 2 -a 0 -i 6 -k RTR 
- -t 1.102363798 -s 0 -d 1 -p cbr -e 1020 -c 2 -a 0 -i 6 -k RTR
h -t 1.102363798 -s 0 -d 1 -p cbr -e 1020 -c 2 -a 0 -i 6 -k RTR
r -t 1.112309379 -s 1 -d 1 -p cbr -e 1020 -c 2 -a 0 -i 11 -k AGT
+ -t 1.122155487 -s 1 -d 2 -p cbr -e 1020 -c 2 -a 0 -i 6 -k RTR 
- -t 1.122155487 -s 1 -d 2 -p cbr -e 1020 -c 2 -a 0 -i 6 -k RTR
h -t 1.122155487 -s 1 -d 2 -p cbr -e 1020 -c 2 -a 0 -i 6 -k RTR
r -t 1.132101068 -s 2 -d 2 -p cbr -e 1020 -c 2 -a 0 -i 6 -k AGT
r -t 1.141826649 -s 1 -d 1 -p cbr -e 1020 -c 2 -a 0 -i 8 -k AGT
+ -t 1.160000000 -s 0 -d -1 -p cbr -e 1000 -c 2 -a 0 -i 12 -k AGT 
- -t 1.160000000 -s 0 -d -1 -p cbr -e 1000 -c 2 -a 0 -i 12 -k AGT
h -t 1.160000000 -s 0 -d -1 -p cbr -e 1000 -c 2 -a 0 -i 12 -k AGT
+ -t 1.160000000 -s 2 -d -1 -p cbr -e 1000 -c 2 -a 0 -i 13 -k AGT 
- -t 1.160000000 -s 2 -d -1 -p cbr -e 1000 -c 2 -a 0 -i 13 -k AGT
h -t 1.160000000 -s 2 -d -1 -p cbr -e 1000 -c 2 -a 0 -i 13 -k AGT
+ -t 1.160000000 -s 2 -d -1 -p cbr -e 1000 -c 2 -a 0 -i 14 -k AGT 
- -t 1.160000000 -s 2 -d -1 -p cbr -e 1000 -c 2 -a 0 -i 14 -k AGT
h -t 1.160000000 -s 2 -d -1 -p cbr -e 1000 -c 2 -a 0 -i 14 -k AGT
+ -t 1.160000000 -s 1 -d -1 -p cbr -e 1000 -c 2 -a 0 -i 15 -k AGT 
- -t 1.160000000 -s 1 -d -1 -p cbr -e 1000 -c 2 -a 0 -i 15 -k AGT
h -t 1.160000000 -s 1 -d -1 -p cbr -e 1000 -c 2 -a 0 -i 15 -k AGT
+ -t 1.160000000 -s 1 -d -1 -p cbr -e 1000 -c 2 -a 0 -i 16 -k AGT 
- -t 1.160000000 -s 1 -d -1 -p cbr -e 1000 -c 2 -a 0 -i 16 -k AGT
h -t 1.160000000 -s 1 -d -1 -p cbr -e 1000 -c 2 -a 0 -i 16 -k AGT
+ -t 1.160000000 -s 0 -d -1 -p cbr -e 1000 -c 2 -a 0 -i 17 -k AGT 
- -t 1.160000000 -s 0 -d -1 -p cbr -e 1000 -c 2 -a 0 -i 17 -k AGT
h -t 1.160000000 -s 0 -d -1 -p cbr -e 1000 -c 2 -a 0 -i 17 -k AGT
+ -t 1.160000000 -s 0 -d 1 -p cbr -e 1020 -c 2 -a 0 -i 12 -k RTR 
- -t 1.160000000 -s 0 -d 1 -p cbr -e 1020 -c 2 -a 0 -i 12 -k RTR
h -t 1.160000000 -s 0 -d 1 -p cbr -e 1020 -c 2 -a 0 -i 12 -k RTR
+ -t 1.160000000 -s 2 -d 1 -p cbr -e 1020 -c 2 -a 0 -i 14 -k RTR 
- -t 1.160000000 -s 2 -d 1 -p cbr -e 1020 -c 2 -a 0 -i 14 -k RTR
h -t 1.160000000 -s 2 -d 1 -p cbr -e 1020 -c 2 -a 0 -i 14 -k RTR
+ -t 1.160000000 -s 1 -d 2 -p cbr -e 1020 -c 2 -a 0 -i 15 -k RTR 
- -t 1.160000000 -s 1 -d 2 -p cbr -e 1020 -c 2 -a 0 -i 15 -k RTR
h -t 1.160000000 -s 1 -d 2 -p cbr -e 1020 -c 2 -a 0 -i 15 -k RTR
+ -t 1.160000000 -s 1 -d 0 -p cbr -e 1020 -c 2 -a 0 -i 16 -k RTR 
- -t 1.160000000 -s 1 -d 0 -p cbr -e 1020 -c 2 -a 0 -i 16 -k RTR
h -t 1.160000000 -s 1 -d 0 -p cbr -e 1020 -c 2 -a 0 -i 16 -k RTR
+ -t 1.160000000 -s 0 -d 1 -p cbr -e 1020 -c 2 -a 0 -i 17 -k RTR 
- -t 1.160000000 -s 0 -d 1 -p cbr -e 1020 -c 2 -a 0 -i 17 -k RTR
h -t 1.160000000 -s 0 -d 1 -p cbr -e 1020 -c 2 -a 0 -i 17 -k RTR
r -t 1.169561581 -s 1 -d 1 -p cbr -e 1020 -c 2 -a 0 -i 14 -k AGT
r -t 1.179287162 -s 2 -d 2 -p cbr -e 1020 -c 2 -a 0 -i 15 -k AGT
r -t 1.189253270 -s 0 -d 0 -p cbr -e 1020 -c 2 -a 0 -i 16 -k AGT
+ -t 1.199078852 -s 1 -d 2 -p cbr -e 1020 -c 2 -a 0 -i 12 -k RTR 
- -t 1.199078852 -s 1 -d 2 -p cbr -e 1020 -c 2 -a 0 -i 12 -k RTR
h -t 1.199078852 -s 1 -d 2 -p cbr -e 1020 -c 2 -a 0 -i 12 -k RTR
r -t 1.208984433 -s 2 -d 2 -p cbr -e 1020 -c 2 -a 0 -i 12 -k AGT
r -t 1.219095014 -s 1 -d 1 -p cbr -e 1020 -c 2 -a 0 -i 17 -k AGT
+ -t 1.240000000 -s 0 -d -1 -p cbr -e 1000 -c 2 -a 0 -i 18 -k AGT 
- -t 1.240000000 -s 0 -d -1 -p cbr -e 1000 -c 2 -a 0 -i 18 -k AGT
h -t 1.240000000 -s 0 -d -1 -p cbr -e 1000 -c 2 -a 0 -i 18 -k AGT
+ -t 1.240000000 -s 2 -d -1 -p cbr -e 1000 -c 2 -a 0 -i 19 -k AGT 
- -t 1.240000000 -s 2 -d -1 -p cbr -e 1000 -c 2 -a 0 -i 19 -k AGT
h -t 1.240000000 -s 2 -d -1 -p cbr -e 1000 -c 2 -a 0 -i 19 -k AGT
+ -t 1.240000000 -s 2 -d -1 -p cbr -e 1000 -c 2 -a 0 -i 20 -k AGT 
- -t 1.240000000 -s 2 -d -1 -p cbr -e 1000 -c 2 -a 0 -i 20 -k AGT
h -t 1.240000000 -s 2 -d -1 -p cbr -e 1000 -c 2 -a 0 -i 20 -k AGT
+ -t 1.240000000 -s 1 -d -1 -p cbr -e 1000 -c 2 -a 0 -i 21 -k AGT 
- -t 1.240000000 -s 1 -d -1 -p cbr -e 1000 -c 2 -a 0 -i 21 -k AGT
h -t 1.240000000 -s 1 -d -1 -p cbr -e 1000 -c 2 -a 0 -i 21 -k AGT
+ -t 1.240000000 -s 1 -d -1 -p cbr -e 1000 -c 2 -a 0 -i 22 -k AGT 
- -t 1.240000000 -s 1 -d -1 -p cbr -e 1000 -c 2 -a 0 -i 22 -k AGT
h -t 1.240000000 -s 1 -d -1 -p cbr -e 1000 -c 2 -a 0 -i 22 -k AGT
+ -t 1.240000000 -s 0 -d -1 -p cbr -e 1000 -c 2 -a 0 -i 23 -k AGT 
- -t 1.240000000 -s 0 -d -1 -p cbr -e 1000 -c 2 -a 0 -i 23 -k AGT
h -t 1.240000000 -s 0 -d -1 -p cbr -e 1000 -c 2 -a 0 -i 23 -k AGT
+ -t 1.240000000 -s 0 -d 1 -p cbr -e 1020 -c 2 -a 0 -i 18 -k RTR 
- -t 1.240000000 -s 0 -d 1 -p cbr -e 1020 -c 2 -a 0 -i 18 -k RTR
h -t 1.240000000 -s 0 -d 1 -p cbr -e 1020 -c 2 -a 0 -i 18 -k RTR
+ -t 1.240000000 -s 2 -d 1 -p cbr -e 1020 -c 2 -a 0 -i 20 -k RTR 
- -t 1.240000000 -s 2 -d 1 -p cbr -e 1020 -c 2 -a 0 -i 20 -k RTR
h -t 1.240000000 -s 2 -d 1 -p cbr -e 1020 -c 2 -a 0 -i 20 -k RTR
+ -t 1.240000000 -s 1 -d 2 -p cbr -e 1020 -c 2 -a 0 -i 21 -k RTR 
- -t 1.240000000 -s 1 -d 2 -p cbr -e 1020 -c 2 -a 0 -i 21 -k RTR
h -t 1.240000000 -s 1 -d 2 -p cbr -e 1020 -c 2 -a 0 -i 21 -k RTR
+ -t 1.240000000 -s 1 -d 0 -p cbr -e 1020 -c 2 -a 0 -i 22 -k RTR 
- -t 1.240000000 -s 1 -d 0 -p cbr -e 1020 -c 2 -a 0 -i 22 -k RTR
h -t 1.240000000 -s 1 -d 0 -p cbr -e 1020 -c 2 -a 0 -i 22 -k RTR
+ -t 1.240000000 -s 0 -d 1 -p cbr -e 1020 -c 2 -a 0 -i 23 -k RTR 
- -t 1.240000000 -s 0 -d 1 -p cbr -e 1020 -c 2 -a 0 -i 23 -k RTR
h -t 1.240000000 -s 0 -d 1 -p cbr -e 1020 -c 2 -a 0 -i 23 -k RTR
r -t 1.249521581 -s 2 -d 2 -p cbr -e 1020 -c 2 -a 0 -i 21 -k AGT
r -t 1.259307162 -s 1 -d 1 -p cbr -e 1020 -c 2 -a 0 -i 20 -k AGT
r -t 1.269172743 -s 0 -d 0 -p cbr -e 1020 -c 2 -a 0 -i 22 -k AGT
+ -t 1.279058325 -s 1 -d 2 -p cbr -e 1020 -c 2 -a 0 -i 18 -k RTR 
- -t 1.279058325 -s 1 -d 2 -p cbr -e 1020 -c 2 -a 0 -i 18 -k RTR
h -t 1.279058325 -s 1 -d 2 -p cbr -e 1020 -c 2 -a 0 -i 18 -k RTR
r -t 1.288844433 -s 1 -d 1 -p cbr -e 1020 -c 2 -a 0 -i 23 -k AGT
r -t 1.298650014 -s 2 -d 2 -p cbr -e 1020 -c 2 -a 0 -i 18 -k AGT
+ -t 1.320000000 -s 0 -d -1 -p cbr -e 1000 -c 2 -a 0 -i 24 -k AGT 
- -t 1.320000000 -s 0 -d -1 -p cbr -e 1000 -c 2 -a 0 -i 24 -k AGT
h -t 1.320000000 -s 0 -d -1 -p cbr -e 1000 -c 2 -a 0 -i 24 -k AGT
+ -t 1.320000000 -s 2 -d -1 -p cbr -e 1000 -c 2 -a 0 -i 25 -k AGT 
- -t 1.320000000 -s 2 -d -1 -p cbr -e 1000 -c 2 -a 0 -i 25 -k AGT
h -t 1.320000000 -s 2 -d -1 -p cbr -e 1000 -c 2 -a 0 -i 25 -k AGT
+ -t 1.320000000 -s 2 -d -1 -p cbr -e 1000 -c 2 -a 0 -i 26 -k AGT 
- -t 1.320000000 -s 2 -d -1 -p cbr -e 1000 -c 2 -a 0 -i 26 -k AGT
h -t 1.320000000 -s 2 -d -1 -p cbr -e 1000 -c 2 -a 0 -i 26 -k AGT
+ -t 1.320000000 -s 1 -d -1 -p cbr -e 1000 -c 2 -a 0 -i 27 -k AGT 
- -t 1.320000000 -s 1 -d -1 -p cbr -e 1000 -c 2 -a 0 -i 27 -k AGT
h -t 1.320000000 -s 1 -d -1 -p cbr -e 1000 -c 2 -a 0 -i 27 -k AGT
+ -t 1.320000000 -s 1 -d -1 -p cbr -e 1000 -c 2 -a 0 -i 28 -k AGT 
- -t 1.320000000 -s 1 -d -1 -p cbr -e 1000 -c 2 -a 0 -i 28 -k AGT
h -t 1.320000000 -s 1 -d -1 -p cbr -e 1000 -c 2 -a 0 -i 28 -k AGT
+ -t 1.320000000 -s 0 -d -1 -p cbr -e 1000 -c 2 -a 0 -i 29 -k AGT 
- -t 1.320000000 -s 0 -d -1 -p cbr -e 1000 -c 2 -a 0 -i 29 -k AGT
h -t 1.320000000 -s 0 -d -1 -p cbr -e 1000 -c 2 -a 0 -i 29 -k AGT
+ -t 1.320000000 -s 0 -d 1 -p cbr -e 1020 -c 2 -a 0 -i 24 -k RTR 
- -t 1.320000000 -s 0 -d 1 -p cbr -e 1020 -c 2 -a 0 -i 24 -k RTR
h -t 1.320000000 -s 0 -d 1 -p cbr -e 1020 -c 2 -a 0 -i 24 -k RTR
+ -t 1.320000000 -s 2 -d 1 -p cbr -e 1020 -c 2 -a 0 -i 26 -k RTR 
- -t 1.320000000 -s 2 -d 1 -p cbr -e 1020 -c 2 -a 0 -i 26 -k RTR
h -t 1.320000000 -s 2 -d 1 -p cbr -e 1020 -c 2 -a 0 -i 26 -k RTR
+ -t 1.320000000 -s 1 -d 2 -p cbr -e 1020 -c 2 -a 0 -i 27 -k RTR 
- -t 1.320000000 -s 1 -d 2 -p cbr -e 1020 -c 2 -a 0 -i 27 -k RTR
h -t 1.320000000 -s 1 -d 2 -p cbr -e 1020 -c 2 -a 0 -i 27 -k RTR
+ -t 1.320000000 -s 1 -d 0 -p cbr -e 1020 -c 2 -a 0 -i 28 -k RTR 
- -t 1.320000000 -s 1 -d 0 -p cbr -e 1020 -c 2 -a 0 -i 28 -k RTR
h -t 1.320000000 -s 1 -d 0 -p cbr -e 1020 -c 2 -a 0 -i 28 -k RTR
+ -t 1.320000000 -s 0 -d 1 -p cbr -e 1020 -c 2 -a 0 -i 29 -k RTR 
- -t 1.320000000 -s 0 -d 1 -p cbr -e 1020 -c 2 -a 0 -i 29 -k RTR
h -t 1.320000000 -s 0 -d 1 -p cbr -e 1020 -c 2 -a 0 -i 29 -k RTR
+ -t 1.329481581 -s 1 -d 2 -p cbr -e 1020 -c 2 -a 0 -i 24 -k RTR 
- -t 1.329481581 -s 1 -d 2 -p cbr -e 1020 -c 2 -a 0 -i 24 -k RTR
h -t 1.329481581 -s 1 -d 2 -p cbr -e 1020 -c 2 -a 0 -i 24 -k RTR
r -t 1.339207689 -s 1 -d 1 -p cbr -e 1020 -c 2 -a 0 -i 29 -k AGT
r -t 1.348933270 -s 2 -d 2 -p cbr -e 1020 -c 2 -a 0 -i 27 -k AGT
r -t 1.358778852 -s 1 -d 1 -p cbr -e 1020 -c 2 -a 0 -i 26 -k AGT
r -t 1.368884433 -s 0 -d 0 -p cbr -e 1020 -c 2 -a 0 -i 28 -k AGT
r -t 1.378610541 -s 2 -d 2 -p cbr -e 1020 -c 2 -a 0 -i 24 -k AGT
+ -t 1.400000000 -s 0 -d -1 -p cbr -e 1000 -c 2 -a 0 -i 30 -k AGT 
- -t 1.400000000 -s 0 -d -1 -p cbr -e 1000 -c 2 -a 0 -i 30 -k AGT
h -t 1.400000000 -s 0 -d -1 -p cbr -e 1000 -c 2 -a 0 -i 30 -k AGT
+ -t 1.400000000 -s 2 -d -1 -p cbr -e 1000 -c 2 -a 0 -i 31 -k AGT 
- -t 1.400000000 -s 2 -d -1 -p cbr -e 1000 -c 2 -a 0 -i 31 -k AGT
h -t 1.400000000 -s 2 -d -1 -p cbr -e 1000 -c 2 -a 0 -i 31 -k AGT
+ -t 1.400000000 -s 2 -d -1 -p cbr -e 1000 -c 2 -a 0 -i 32 -k AGT 
- -t 1.400000000 -s 2 -d -1 -p cbr -e 1000 -c 2 -a 0 -i 32 -k AGT
h -t 1.400000000 -s 2 -d -1 -p cbr -e 1000 -c 2 -a 0 -i 32 -k AGT
+ -t 1.400000000 -s 1 -d -1 -p cbr -e 1000 -c 2 -a 0 -i 33 -k AGT 
- -t 1.400000000 -s 1 -d -1 -p cbr -e 1000 -c 2 -a 0 -i 33 -k AGT
h -t 1.400000000 -s 1 -d -1 -p cbr -e 1000 -c 2 -a 0 -i 33 -k AGT
+ -t 1.400000000 -s 1 -d -1 -p cbr -e 1000 -c 2 -a 0 -i 34 -k AGT 
- -t 1.400000000 -s 1 -d -1 -p cbr -e 1000 -c 2 -a 0 -i 34 -k AGT
h -t 1.400000000 -s 1 -d -1 -p cbr -e 1000 -c 2 -a 0 -i 34 -k AGT
+ -t 1.400000000 -s 0 -d -1 -p cbr -e 1000 -c 2 -a 0 -i 35 -k AGT 
- -t 1.400000000 -s 0 -d -1 -p cbr -e 1000 -c 2 -a 0 -i 35 -k AGT
h -t 1.400000000 -s 0 -d -1 -p cbr -e 1000 -c 2 -a 0 -i 35 -k AGT
+ -t 1.400000000 -s 0 -d 1 -p cbr -e 1020 -c 2 -a 0 -i 30 -k RTR 
- -t 1.400000000 -s 0 -d 1 -p cbr -e 1020 -c 2 -a 0 -i 30 -k RTR
h -t 1.400000000 -s 0 -d 1 -p cbr -e 1020 -c 2 -a 0 -i 30 -k RTR
+ -t 1.400000000 -s 2 -d 1 -p cbr -e 1020 -c 2 -a 0 -i 32 -k RTR 
- -t 1.400000000 -s 2 -d 1 -p cbr -e 1020 -c 2 -a 0 -i 32 -k RTR
h -t 1.400000000 -s 2 -d 1 -p cbr -e 1020 -c 2 -a 0 -i 32 -k RTR
+ -t 1.400000000 -s 1 -d 2 -p cbr -e 1020 -c 2 -a 0 -i 33 -k RTR 
- -t 1.400000000 -s 1 -d 2 -p cbr -e 1020 -c 2 -a 0 -i 33 -k RTR
h -t 1.400000000 -s 1 -d 2 -p cbr -e 1020 -c 2 -a 0 -i 33 -k RTR
+ -t 1.400000000 -s 1 -d 0 -p cbr -e 1020 -c 2 -a 0 -i 34 -k RTR 
- -t 1.400000000 -s 1 -d 0 -p cbr -e 1020 -c 2 -a 0 -i 34 -k RTR
h -t 1.400000000 -s 1 -d 0 -p cbr -e 1020 -c 2 -a 0 -i 34 -k RTR
+ -t 1.400000000 -s 0 -d 1 -p cbr -e 1020 -c 2 -a 0 -i 35 -k RTR 
- -t 1.400000000 -s 0 -d 1 -p cbr -e 1020 -c 2 -a 0 -i 35 -k RTR
h -t 1.400000000 -s 0 -d 1 -p cbr -e 1020 -c 2 -a 0 -i 35 -k RTR
+ -t 1.409521581 -s 1 -d 2 -p cbr -e 1020 -c 2 -a 0 -i 30 -k RTR 
- -t 1.409521581 -s 1 -d 2 -p cbr -e 1020 -c 2 -a 0 -i 30 -k RTR
h -t 1.409521581 -s 1 -d 2 -p cbr -e 1020 -c 2 -a 0 -i 30 -k RTR
r -t 1.419507162 -s 2 -d 2 -p cbr -e 1020 -c 2 -a 0 -i 33 -k AGT
r -t 1.429392743 -s 1 -d 1 -p cbr -e 1020 -c 2 -a 0 -i 32 -k AGT
r -t 1.439158325 -s 0 -d 0 -p cbr -e 1020 -c 2 -a 0 -i 34 -k AGT
r -t 1.449023906 -s 1 -d 1 -p cbr -e 1020 -c 2 -a 0 -i 35 -k AGT
r -t 1.458809487 -s 2 -d 2 -p cbr -e 1020 -c 2 -a 0 -i 30 -k AGT
+ -t 1.480000000 -s 0 -d -1 -p cbr -e 1000 -c 2 -a 0 -i 36 -k AGT 
- -t 1.480000000 -s 0 -d -1 -p cbr -e 1000 -c 2 -a 0 -i 36 -k AGT
h -t 1.480000000 -s 0 -d -1 -p cbr -e 1000 -c 2 -a 0 -i 36 -k AGT
+ -t 1.480000000 -s 2 -d -1 -p cbr -e 1000 -c 2 -a 0 -i 37 -k AGT 
- -t 1.480000000 -s 2 -d -1 -p cbr -e 1000 -c 2 -a 0 -i 37 -k AGT
h -t 1.480000000 -s 2 -d -1 -p cbr -e 1000 -c 2 -a 0 -i 37 -k AGT
+ -t 1.480000000 -s 2 -d -1 -p cbr -e 1000 -c 2 -a 0 -i 38 -k AGT 
- -t 1.480000000 -s 2 -d -1 -p cbr -e 1000 -c 2 -a 0 -i 38 -k AGT
h -t 1.480000000 -s 2 -d -1 -p cbr -e 1000 -c 2 -a 0 -i 38 -k AGT
+ -t 1.480000000 -s 1 -d -1 -p cbr -e 1000 -c 2 -a 0 -i 39 -k AGT 
- -t 1.480000000 -s 1 -d -1 -p cbr -e 1000 -c 2 -a 0 -i 39 -k AGT
h -t 1.480000000 -s 1 -d -1 -p cbr -e 1000 -c 2 -a 0 -i 39 -k AGT
+ -t 1.480000000 -s 1 -d -1 -p cbr -e 1000 -c 2 -a 0 -i 40 -k AGT 
- -t 1.480000000 -s 1 -d -1 -p cbr -e 1000 -c 2 -a 0 -i 40 -k AGT
h -t 1.480000000 -s 1 -d -1 -p cbr -e 1000 -c 2 -a 0 -i 40 -k AGT
+ -t 1.480000000 -s 0 -d -1 -p cbr -e 1000 -c 2 -a 0 -i 41 -k AGT 
- -t 1.480000000 -s 0 -d -1 -p cbr -e 1000 -c 2 -a 0 -i 41 -k AGT
h -t 1.480000000 -s 0 -d -1 -p cbr -e 1000 -c 2 -a 0 -i 41 -k AGT
+ -t 1.480000000 -s 0 -d 1 -p cbr -e 1020 -c 2 -a 0 -i 36 -k RTR 
- -t 1.480000000 -s 0 -d 1 -p cbr -e 1020 -c 2 -a 0 -i 36 -k RTR
h -t 1.480000000 -s 0 -d 1 -p cbr -e 1020 -c 2 -a 0 -i 36 -k RTR
+ -t 1.480000000 -s 2 -d 1 -p cbr -e 1020 -c 2 -a 0 -i 38 -k RTR 
- -t 1.480000000 -s 2 -d 1 -p cbr -e 1020 -c 2 -a 0 -i 38 -k RTR
h -t 1.480000000 -s 2 -d 1 -p cbr -e 1020 -c 2 -a 0 -i 38 -k RTR
+ -t 1.480000000 -s 1 -d 2 -p cbr -e 1020 -c 2 -a 0 -i 39 -k RTR 
- -t 1.480000000 -s 1 -d 2 -p cbr -e 1020 -c 2 -a 0 -i 39 -k RTR
h -t 1.480000000 -s 1 -d 2 -p cbr -e 1020 -c 2 -a 0 -i 39 -k RTR
+ -t 1.480000000 -s 1 -d 0 -p cbr -e 1020 -c 2 -a 0 -i 40 -k RTR 
- -t 1.480000000 -s 1 -d 0 -p cbr -e 1020 -c 2 -a 0 -i 40 -k RTR
h -t 1.480000000 -s 1 -d 0 -p cbr -e 1020 -c 2 -a 0 -i 40 -k RTR
+ -t 1.480000000 -s 0 -d 1 -p cbr -e 1020 -c 2 -a 0 -i 41 -k RTR 
- -t 1.480000000 -s 0 -d 1 -p cbr -e 1020 -c 2 -a 0 -i 41 -k RTR
h -t 1.480000000 -s 0 -d 1 -p cbr -e 1020 -c 2 -a 0 -i 41 -k RTR
r -t 1.489581581 -s 2 -d 2 -p cbr -e 1020 -c 2 -a 0 -i 39 -k AGT
r -t 1.499287162 -s 1 -d 1 -p cbr -e 1020 -c 2 -a 0 -i 38 -k AGT
r -t 1.509092743 -s 0 -d 0 -p cbr -e 1020 -c 2 -a 0 -i 40 -k AGT
+ -t 1.519078325 -s 1 -d 2 -p cbr -e 1020 -c 2 -a 0 -i 36 -k RTR 
- -t 1.519078325 -s 1 -d 2 -p cbr -e 1020 -c 2 -a 0 -i 36 -k RTR
h -t 1.519078325 -s 1 -d 2 -p cbr -e 1020 -c 2 -a 0 -i 36 -k RTR
r -t 1.528843906 -s 2 -d 2 -p cbr -e 1020 -c 2 -a 0 -i 36 -k AGT
r -t 1.538914487 -s 1 -d 1 -p cbr -e 1020 -c 2 -a 0 -i 41 -k AGT
+ -t 1.560000000 -s 0 -d -1 -p cbr -e 1000 -c 2 -a 0 -i 42 -k AGT 
- -t 1.560000000 -s 0 -d -1 -p cbr -e 1000 -c 2 -a 0 -i 42 -k AGT
h -t 1.560000000 -s 0 -d -1 -p cbr -e 1000 -c 2 -a 0 -i 42 -k AGT
+ -t 1.560000000 -s 2 -d -1 -p cbr -e 1000 -c 2 -a 0 -i 43 -k AGT 
- -t 1.560000000 -s 2 -d -1 -p cbr -e 1000 -c 2 -a 0 -i 43 -k AGT
h -t 1.560000000 -s 2 -d -1 -p cbr -e 1000 -c 2 -a 0 -i 43 -k AGT
+ -t 1.560000000 -s 2 -d -1 -p cbr -e 1000 -c 2 -a 0 -i 44 -k AGT 
- -t 1.560000000 -s 2 -d -1 -p cbr -e 1000 -c 2 -a 0 -i 44 -k AGT
h -t 1.560000000 -s 2 -d -1 -p cbr -e 1000 -c 2 -a 0 -i 44 -k AGT
+ -t 1.560000000 -s 1 -d -1 -p cbr -e 1000 -c 2 -a 0 -i 45 -k AGT 
- -t 1.560000000 -s 1 -d -1 -p cbr -e 1000 -c 2 -a 0 -i 45 -k AGT
h -t 1.560000000 -s 1 -d -1 -p cbr -e 1000 -c 2 -a 0 -i 45 -k AGT
+ -t 1.560000000 -s 1 -d -1 -p cbr -e 1000 -c 2 -a 0 -i 46 -k AGT 
- -t 1.560000000 -s 1 -d -1 -p cbr -e 1000 -c 2 -a 0 -i 46 -k AGT
h -t 1.560000000 -s 1 -d -1 -p cbr -e 1000 -c 2 -a 0 -i 46 -k AGT
+ -t 1.560000000 -s 0 -d -1 -p cbr -e 1000 -c 2 -a 0 -i 47 -k AGT 
- -t 1.560000000 -s 0 -d -1 -p cbr -e 1000 -c 2 -a 0 -i 47 -k AGT
h -t 1.560000000 -s 0 -d -1 -p cbr -e 1000 -c 2 -a 0 -i 47 -k AGT
+ -t 1.560000000 -s 0 -d 1 -p cbr -e 1020 -c 2 -a 0 -i 42 -k RTR 
- -t 1.560000000 -s 0 -d 1 -p cbr -e 1020 -c 2 -a 0 -i 42 -k RTR
h -t 1.560000000 -s 0 -d 1 -p cbr -e 1020 -c 2 -a 0 -i 42 -k RTR
+ -t 1.560000000 -s 2 -d 1 -p cbr -e 1020 -c 2 -a 0 -i 44 -k RTR 
- -t 1.560000000 -s 2 -d 1 -p cbr -e 1020 -c 2 -a 0 -i 44 -k RTR
h -t 1.560000000 -s 2 -d 1 -p cbr -e 1020 -c 2 -a 0 -i 44 -k RTR
+ -t 1.560000000 -s 1 -d 2 -p cbr -e 1020 -c 2 -a 0 -i 45 -k RTR 
- -t 1.560000000 -s 1 -d 2 -p cbr -e 1020 -c 2 -a 0 -i 45 -k RTR
h -t 1.560000000 -s 1 -d 2 -p cbr -e 1020 -c 2 -a 0 -i 45 -k RTR
+ -t 1.560000000 -s 1 -d 0 -p cbr -e 1020 -c 2 -a 0 -i 46 -k RTR 
- -t 1.560000000 -s 1 -d 0 -p cbr -e 1020 -c 2 -a 0 -i 46 -k RTR
h -t 1.560000000 -s 1 -d 0 -p cbr -e 1020 -c 2 -a 0 -i 46 -k RTR
+ -t 1.560000000 -s 0 -d 1 -p cbr -e 1020 -c 2 -a 0 -i 47 -k RTR 
- -t 1.560000000 -s 0 -d 1 -p cbr -e 1020 -c 2 -a 0 -i 47 -k RTR
h -t 1.560000000 -s 0 -d 1 -p cbr -e 1020 -c 2 -a 0 -i 47 -k RTR
+ -t 1.569401581 -s 1 -d 2 -p cbr -e 1020 -c 2 -a 0 -i 42 -k RTR 
- -t 1.569401581 -s 1 -d 2 -p cbr -e 1020 -c 2 -a 0 -i 42 -k RTR
h -t 1.569401581 -s 1 -d 2 -p cbr -e 1020 -c 2 -a 0 -i 42 -k RTR
r -t 1.579257635 -s 1 -d 1 -p cbr -e 1020 -c 2 -a 0 -i 44 -k AGT
r -t 1.589103216 -s 2 -d 2 -p cbr -e 1020 -c 2 -a 0 -i 45 -k AGT
r -t 1.599153798 -s 1 -d 1 -p cbr -e 1020 -c 2 -a 0 -i 47 -k AGT
r -t 1.608939379 -s 0 -d 0 -p cbr -e 1020 -c 2 -a 0 -i 46 -k AGT
r -t 1.618765487 -s 2 -d 2 -p cbr -e 1020 -c 2 -a 0 -i 42 -k AGT
+ -t 1.640000000 -s 0 -d -1 -p cbr -e 1000 -c 2 -a 0 -i 48 -k AGT 
- -t 1.640000000 -s 0 -d -1 -p cbr -e 1000 -c 2 -a 0 -i 48 -k AGT
h -t 1.640000000 -s 0 -d -1 -p cbr -e 1000 -c 2 -a 0 -i 48 -k AGT
+ -t 1.640000000 -s 2 -d -1 -p cbr -e 1000 -c 2 -a 0 -i 49 -k AGT 
- -t 1.640000000 -s 2 -d -1 -p cbr -e 1000 -c 2 -a 0 -i 49 -k AGT
h -t 1.640000000 -s 2 -d -1 -p cbr -e 1000 -c 2 -a 0 -i 49 -k AGT
+ -t 1.640000000 -s 2 -d -1 -p cbr -e 1000 -c 2 -a 0 -i 50 -k AGT 
- -t 1.640000000 -s 2 -d -1 -p cbr -e 1000 -c 2 -a 0 -i 50 -k AGT
h -t 1.640000000 -s 2 -d -1 -p cbr -e 1000 -c 2 -a 0 -i 50 -k AGT
+ -t 1.640000000 -s 1 -d -1 -p cbr -e 1000 -c 2 -a 0 -i 51 -k AGT 
- -t 1.640000000 -s 1 -d -1 -p cbr -e 1000 -c 2 -a 0 -i 51 -k AGT
h -t 1.640000000 -s 1 -d -1 -p cbr -e 1000 -c 2 -a 0 -i 51 -k AGT
+ -t 1.640000000 -s 1 -d -1 -p cbr -e 1000 -c 2 -a 0 -i 52 -k AGT 
- -t 1.640000000 -s 1 -d -1 -p cbr -e 1000 -c 2 -a 0 -i 52 -k AGT
h -t 1.640000000 -s 1 -d -1 -p cbr -e 1000 -c 2 -a 0 -i 52 -k AGT
+ -t 1.640000000 -s 0 -d -1 -p cbr -e 1000 -c 2 -a 0 -i 53 -k AGT 
- -t 1.640000000 -s 0 -d -1 -p cbr -e 1000 -c 2 -a 0 -i 53 -k AGT
h -t 1.640000000 -s 0 -d -1 -p cbr -e 1000 -c 2 -a 0 -i 53 -k AGT
+ -t 1.640000000 -s 0 -d 1 -p cbr -e 1020 -c 2 -a 0 -i 48 -k RTR 
- -t 1.640000000 -s 0 -d 1 -p cbr -e 1020 -c 2 -a 0 -i 48 -k RTR
h -t 1.640000000 -s 0 -d 1 -p cbr -e 1020 -c 2 -a 0 -i 48 -k RTR
+ -t 1.640000000 -s 2 -d 1 -p cbr -e 1020 -c 2 -a 0 -i 50 -k RTR 
- -t 1.640000000 -s 2 -d 1 -p cbr -e 1020 -c 2 -a 0 -i 50 -k RTR
h -t 1.640000000 -s 2 -d 1 -p cbr -e 1020 -c 2 -a 0 -i 50 -k RTR
+ -t 1.640000000 -s 1 -d 2 -p cbr -e 1020 -c 2 -a 0 -i 51 -k RTR 
- -t 1.640000000 -s 1 -d 2 -p cbr -e 1020 -c 2 -a 0 -i 51 -k RTR
h -t 1.640000000 -s 1 -d 2 -p cbr -e 1020 -c 2 -a 0 -i 51 -k RTR
+ -t 1.640000000 -s 1 -d 0 -p cbr -e 1020 -c 2 -a 0 -i 52 -k RTR 
- -t 1.640000000 -s 1 -d 0 -p cbr -e 1020 -c 2 -a 0 -i 52 -k RTR
h -t 1.640000000 -s 1 -d 0 -p cbr -e 1020 -c 2 -a 0 -i 52 -k RTR
+ -t 1.640000000 -s 0 -d 1 -p cbr -e 1020 -c 2 -a 0 -i 53 -k RTR 
- -t 1.640000000 -s 0 -d 1 -p cbr -e 1020 -c 2 -a 0 -i 53 -k RTR
h -t 1.640000000 -s 0 -d 1 -p cbr -e 1020 -c 2 -a 0 -i 53 -k RTR
r -t 1.649401581 -s 2 -d 2 -p cbr -e 1020 -c 2 -a 0 -i 51 -k AGT
r -t 1.659127689 -s 0 -d 0 -p cbr -e 1020 -c 2 -a 0 -i 52 -k AGT
+ -t 1.669053270 -s 1 -d 2 -p cbr -e 1020 -c 2 -a 0 -i 48 -k RTR 
- -t 1.669053270 -s 1 -d 2 -p cbr -e 1020 -c 2 -a 0 -i 48 -k RTR
h -t 1.669053270 -s 1 -d 2 -p cbr -e 1020 -c 2 -a 0 -i 48 -k RTR
r -t 1.678809325 -s 1 -d 1 -p cbr -e 1020 -c 2 -a 0 -i 50 -k AGT
r -t 1.688674906 -s 2 -d 2 -p cbr -e 1020 -c 2 -a 0 -i 48 -k AGT
r -t 1.699085487 -s 1 -d 1 -p cbr -e 1020 -c 2 -a 0 -i 53 -k AGT
+ -t 1.720000000 -s 0 -d -1 -p cbr -e 1000 -c 2 -a 0 -i 54 -k AGT 
- -t 1.720000000 -s 0 -d -1 -p cbr -e 1000 -c 2 -a 0 -i 54 -k AGT
h -t 1.720000000 -s 0 -d -1 -p cbr -e 1000 -c 2 -a 0 -i 54 -k AGT
+ -t 1.720000000 -s 2 -d -1 -p cbr -e 1000 -c 2 -a 0 -i 55 -k AGT 
- -t 1.720000000 -s 2 -d -1 -p cbr -e 1000 -c 2 -a 0 -i 55 -k AGT
h -t 1.720000000 -s 2 -d -1 -p cbr -e 1000 -c 2 -a 0 -i 55 -k AGT
+ -t 1.720000000 -s 2 -d -1 -p cbr -e 1000 -c 2 -a 0 -i 56 -k AGT 
- -t 1.720000000 -s 2 -d -1 -p cbr -e 1000 -c 2 -a 0 -i 56 -k AGT
h -t 1.720000000 -s 2 -d -1 -p cbr -e 1000 -c 2 -a 0 -i 56 -k AGT
+ -t 1.720000000 -s 1 -d -1 -p cbr -e 1000 -c 2 -a 0 -i 57 -k AGT 
- -t 1.720000000 -s 1 -d -1 -p cbr -e 1000 -c 2 -a 0 -i 57 -k AGT
h -t 1.720000000 -s 1 -d -1 -p cbr -e 1000 -c 2 -a 0 -i 57 -k AGT
+ -t 1.720000000 -s 1 -d -1 -p cbr -e 1000 -c 2 -a 0 -i 58 -k AGT 
- -t 1.720000000 -s 1 -d -1 -p cbr -e 1000 -c 2 -a 0 -i 58 -k AGT